Gromacs Runs On Most of All Computer Systems in water
11556
    1DMSO    SD    1   0.683   3.105   4.760 -0.1579  0.2486 -0.1946
    1DMSO   CD1    2   0.719   3.282   4.784 -0.6771 -0.1600 -0.6206
    1DMSO    OD    3   0.802   3.023   4.814  0.0105  0.0549 -0.0084
    1DMSO   CD2    4   0.553   3.085   4.887  0.1934  0.0155  0.2548
    2DMSO    SD    5   2.285   0.970   4.795  0.1319  0.2062 -0.4207
    2DMSO   CD1    6   2.374   1.106   4.862  0.0449  0.2405  0.1508
    2DMSO    OD    7   2.220   1.018   4.664  0.4288 -0.0352 -0.0182
    2DMSO   CD2    8   2.420   0.866   4.748 -0.0044 -0.5646 -0.0495
    3DMSO    SD    9   0.193   2.711   4.685  0.4367  0.3426 -0.0946
    3DMSO   CD1   10   0.149   2.534   4.676  0.3973 -0.3098  0.4963
    3DMSO    OD   11   0.338   2.715   4.629 -0.3835  0.1624  0.1227
    3DMSO   CD2   12   0.090   2.767   4.550 -0.2217 -0.0489 -0.2897
    4DMSO    SD   13   3.543   4.117   4.668 -0.4612 -0.4482  0.1398
    4DMSO   CD1   14   3.508   4.227   4.801 -0.0526  0.0272 -0.2593
    4DMSO    OD   15   3.681   4.056   4.692 -0.2504 -0.8390 -0.3210
    4DMSO   CD2   16   3.425   3.986   4.712  0.0065 -0.3013  0.0264
    5DMSO    SD   17   0.529   1.664   4.514  0.0421 -0.2765 -0.1564
    5DMSO   CD1   18   0.585   1.723   4.676 -0.0086  0.1373  0.2565
    5DMSO    OD   19   0.426   1.552   4.547 -0.5337 -0.3991  1.0417
    5DMSO   CD2   20   0.428   1.803   4.466  0.2210 -0.7046 -0.4330
    6DMSO    SD   21   0.101   1.575   4.692 -0.0258  0.1810  0.1173
    6DMSO   CD1   22  -0.017   1.454   4.756 -0.0140  0.0045 -0.2708
    6DMSO    OD   23   0.062   1.713   4.758 -0.4096  0.3048 -0.7256
    6DMSO   CD2   24   0.238   1.520   4.794  0.0688 -0.8564 -0.5634
    7DMSO    SD   25   1.369   1.104   4.589  0.1071 -0.3312  0.0615
    7DMSO   CD1   26   1.497   0.983   4.571  0.5129  0.1491 -0.4801
    7DMSO    OD   27   1.232   1.038   4.600 -0.1074 -0.1269 -0.3166
    7DMSO   CD2   28   1.413   1.154   4.761 -0.1666 -0.1566  0.3514
    8DMSO    SD   29   1.517   0.187   4.558  0.0309  0.1710 -0.0736
    8DMSO   CD1   30   1.657   0.293   4.515  0.2133 -0.1912  0.1293
    8DMSO    OD   31   1.584   0.064   4.627 -0.3543 -0.0101 -0.2510
    8DMSO   CD2   32   1.457   0.287   4.695 -0.2501 -0.4254 -0.3305
    9DMSO    SD   33   2.607   3.019   4.684  0.1080  0.1709  0.2158
    9DMSO   CD1   34   2.521   3.075   4.539 -0.6981  0.2587  0.5614
    9DMSO    OD   35   2.617   2.865   4.670  0.4335 -0.4427 -0.3948
    9DMSO   CD2   36   2.771   3.081   4.632 -0.6371 -0.5917 -0.3116
   10SOL     OW   37   0.815   1.404   0.464  0.3151 -0.0996  0.4939
   10SOL    HW2   38   0.910   1.397   0.457  0.4016  0.4233  1.1307
   10SOL    HW3   39   0.793   1.482   0.413  0.1748 -0.5316 -0.0997
   10SOL    MW4   40   0.825   1.413   0.456  0.3080 -0.0876  0.4996
   11SOL     OW   41   0.130   2.228   0.415  0.4852  0.1656 -0.2767
   11SOL    HW2   42   0.219   2.243   0.383  0.9027  0.5491  1.0144
   11SOL    HW3   43   0.084   2.188   0.342  0.8597  2.7866 -2.0035
   11SOL    MW4   44   0.136   2.225   0.401  0.5897  0.5620 -0.3342
   12SOL     OW   45   1.586   0.552   0.732  0.1511  0.0298  0.3901
   12SOL    HW2   46   1.672   0.516   0.754 -0.2418 -1.0692  0.1368
   12SOL    HW3   47   1.580   0.543   0.637 -0.7221 -0.9812  0.5330
   12SOL    MW4   48   1.596   0.546   0.722 -0.0160 -0.2486  0.3755
   13SOL     OW   49   1.681   4.037   0.228 -0.2171  0.6238  0.6541
   13SOL    HW2   50   1.760   4.063   0.181 -0.5061 -0.7925 -0.6284
   13SOL    HW3   51   1.704   3.954   0.269 -1.2024 -0.0402 -0.1345
   13SOL    MW4   52   1.695   4.029   0.227 -0.3852  0.3493  0.3808
   14SOL     OW   53   4.187   2.012   0.766 -0.5235 -0.4176  0.6044
   14SOL    HW2   54   4.275   1.983   0.792 -0.6473 -2.8948 -1.5418
   14SOL    HW3   55   4.194   2.031   0.673 -2.0323  0.2932  0.6263
   14SOL    MW4   56   4.200   2.010   0.757 -0.7389 -0.6507  0.3241
   15SOL     OW   57   4.285   3.062   0.925  0.2125  0.1659  0.9381
   15SOL    HW2   58   4.202   3.103   0.900 -1.4403 -3.1010  0.7138
   15SOL    HW3   59   4.352   3.115   0.882 -1.9252  1.3882 -1.0150
   15SOL    MW4   60   4.283   3.074   0.916 -0.2876 -0.1039  0.6508
   16SOL     OW   61   0.732   0.514   0.475 -0.2333 -0.3040 -0.0992
   16SOL    HW2   62   0.672   0.522   0.549  0.5771  0.1010  0.5110
   16SOL    HW3   63   0.774   0.429   0.487 -1.4849 -1.0952 -1.1356
   16SOL    MW4   64   0.729   0.503   0.486 -0.2915 -0.3550 -0.1554
   17SOL     OW   65   3.956   3.665   0.458  0.1448  0.2639  0.3323
   17SOL    HW2   66   3.912   3.663   0.543  1.3796 -0.6152  0.9696
   17SOL    HW3   67   3.886   3.682   0.395 -0.7058  1.5365  1.5768
   17SOL    MW4   68   3.941   3.667   0.461  0.1955  0.3158  0.5806
   18SOL     OW   69   4.443   0.886   0.743 -0.2847  0.2583 -0.1452
   18SOL    HW2   70   4.511   0.822   0.764 -1.7253 -0.8893  1.1123
   18SOL    HW3   71   4.460   0.910   0.651  0.9875 -1.0196 -0.2553
   18SOL    MW4   72   4.454   0.881   0.733 -0.3069 -0.0617  0.0062
   19SOL     OW   73   2.045   2.097   0.518  0.5454  0.4717 -0.2008
   19SOL    HW2   74   2.000   2.177   0.492  0.2422 -0.5019 -2.8000
   19SOL    HW3   75   2.134   2.107   0.484  0.5232 -0.2562 -0.4849
   19SOL    MW4   76   2.051   2.109   0.510  0.5025  0.2472 -0.5812
   20SOL     OW   77   1.566   1.210   0.769  0.0120  0.0037  0.1348
   20SOL    HW2   78   1.550   1.292   0.815 -0.5169  0.1702 -0.3401
   20SOL    HW3   79   1.572   1.236   0.677 -0.7655 -0.5713 -0.0787
   20SOL    MW4   80   1.565   1.224   0.763 -0.1604 -0.0502  0.0440
   21SOL     OW   81   3.778   1.239   0.505  0.2899 -0.0589 -1.1028
   21SOL    HW2   82   3.783   1.235   0.600 -0.0302  1.6039 -1.0057
   21SOL    HW3   83   3.735   1.157   0.480 -0.4748 -0.0854  0.2609
   21SOL    MW4   84   3.773   1.228   0.514  0.1468  0.1570 -0.9101
   22SOL     OW   85   2.512   0.352   0.312 -0.4805 -0.4780  0.3763
   22SOL    HW2   86   2.527   0.443   0.340  0.8008 -1.3017  2.4788
   22SOL    HW3   87   2.429   0.328   0.352  0.0120 -0.7737  1.2266
   22SOL    MW4   88   2.503   0.361   0.321 -0.2465 -0.6257  0.7659
   23SOL     OW   89   0.712   3.084   0.322  0.6445  0.6291 -0.2925
   23SOL    HW2   90   0.703   2.996   0.359  1.2889  1.0147  0.8087
   23SOL    HW3   91   0.647   3.136   0.370  0.4277  0.8065 -0.7775
   23SOL    MW4   92   0.702   3.079   0.333  0.7009  0.7034 -0.2112
   24SOL     OW   93   1.603   3.079   0.779  0.0683 -0.5434 -0.0171
   24SOL    HW2   94   1.687   3.118   0.757  0.5342 -1.2600  0.4849
   24SOL    HW3   95   1.596   3.086   0.874 -0.1481 -1.0715  0.0106
   24SOL    MW4   96   1.613   3.085   0.789  0.1012 -0.7076  0.0528
   25SOL     OW   97   3.398   3.513   0.461  0.1801  0.4735  0.2474
   25SOL    HW2   98   3.349   3.485   0.538  1.3110 -0.1041  0.7711
   25SOL    HW3   99   3.488   3.486   0.479  0.2574 -0.7530 -1.8077
   25SOL    MW4  100   3.404   3.506   0.473  0.3395  0.2355  0.0454
   26SOL     OW  101   2.281   0.371   0.748 -0.1952 -0.0469 -0.2355
   26SOL    HW2  102   2.289   0.277   0.731  0.0761  0.1224 -1.0797
   26SOL    HW3  103   2.365   0.407   0.722  0.0607  0.3050  1.0335
   26SOL    MW4  104   2.293   0.363   0.742 -0.1257  0.0219 -0.1795
   27SOL     OW  105   3.036   3.256   0.472 -0.1939  0.2937  0.5354
   27SOL    HW2  106   2.951   3.215   0.463  0.1629 -0.0977 -1.2782
   27SOL    HW3  107   3.073   3.218   0.551 -0.7105 -1.3792  0.0019
   27SOL    MW4  108   3.030   3.246   0.481 -0.2150  0.0214  0.2257
   28SOL     OW  109   4.451   2.430   0.534 -0.6857 -0.2594  0.0195
   28SOL    HW2  110   4.524   2.372   0.514  0.0366  0.3434  0.8810
   28SOL    HW3  111   4.374   2.384   0.500 -0.0136 -1.2869 -0.1390
   28SOL    MW4  112   4.451   2.416   0.527 -0.5017 -0.3154  0.1123
   29SOL     OW  113   2.820   0.686   0.383 -0.1117 -0.2979  0.1022
   29SOL    HW2  114   2.778   0.750   0.440  0.2804 -0.5436  0.6722
   29SOL    HW3  115   2.907   0.722   0.366  0.3741 -1.0269  1.0213
   29SOL    MW4  116   2.826   0.699   0.388  0.0041 -0.4265  0.2987
   30SOL     OW  117   0.238   2.831   0.476  0.0531 -0.7864 -0.1789
   30SOL    HW2  118   0.177   2.764   0.445 -0.8988 -0.3609  0.7198
   30SOL    HW3  119   0.208   2.911   0.435  1.7676 -1.0622 -1.9962
   30SOL    MW4  120   0.226   2.832   0.467  0.1537 -0.7666 -0.3001
   31SOL     OW  121   1.164   3.323   0.330 -0.1581  0.1345  0.5995
   31SOL    HW2  122   1.084   3.275   0.352  0.4683 -1.0536  0.3077
   31SOL    HW3  123   1.235   3.264   0.354  0.5909 -0.3753 -2.6417
   31SOL    MW4  124   1.163   3.309   0.336  0.0233 -0.0895  0.1334
   32SOL     OW  125   4.212   3.090   0.322  0.1423 -0.0825 -0.0308
   32SOL    HW2  126   4.128   3.046   0.337 -0.6715  1.5975  0.4797
   32SOL    HW3  127   4.189   3.168   0.270  1.2769  0.8095  0.7815
   32SOL    MW4  128   4.198   3.095   0.317  0.1846  0.2569  0.1437
   33SOL     OW  129   1.821   1.156   0.319  0.2377 -0.4905 -0.2113
   33SOL    HW2  130   1.748   1.186   0.373  0.0521 -0.6397 -0.3767
   33SOL    HW3  131   1.888   1.224   0.327  1.3078 -1.7870  2.4046
   33SOL    MW4  132   1.820   1.169   0.327  0.3544 -0.6812  0.1120
   34SOL     OW  133   2.363   2.891   0.504  0.3689  0.4492 -0.0479
   34SOL    HW2  134   2.398   2.888   0.593  2.6405  1.3007 -0.8684
   34SOL    HW3  135   2.340   2.983   0.491 -2.5157 -0.1346  0.5570
   34SOL    MW4  136   2.365   2.903   0.514  0.2880  0.4845 -0.0763
   35SOL     OW  137   2.909   2.624   0.377  0.3405  0.1540 -0.0756
   35SOL    HW2  138   2.845   2.583   0.436  1.0201 -2.2667 -0.9604
   35SOL    HW3  139   2.985   2.566   0.381  1.1768  1.1206 -1.7060
   35SOL    MW4  140   2.911   2.611   0.385  0.5405 -0.0379 -0.4075
   36SOL     OW  141   3.775   1.526   0.884  0.0064 -0.1644 -0.3345
   36SOL    HW2  142   3.784   1.437   0.852 -1.3187  0.3890 -2.3760
   36SOL    HW3  143   3.857   1.569   0.858 -0.4020 -0.1383 -1.5878
   36SOL    MW4  144   3.787   1.520   0.876 -0.2223 -0.0879 -0.7692
   37SOL     OW  145   3.312   2.307   0.871  0.2318 -0.0557 -0.7114
   37SOL    HW2  146   3.336   2.318   0.963 -0.8271  1.9630 -0.6424
   37SOL    HW3  147   3.375   2.360   0.824 -0.5049  0.6019 -0.9707
   37SOL    MW4  148   3.323   2.315   0.877 -0.0051  0.2974 -0.7365
   38SOL     OW  149   3.830   0.748   0.463 -0.5321 -0.1805  0.3489
   38SOL    HW2  150   3.793   0.830   0.430 -0.3835 -0.2758 -0.0617
   38SOL    HW3  151   3.913   0.774   0.504  1.0258 -0.5075 -2.4890
   38SOL    MW4  152   3.836   0.762   0.464 -0.3070 -0.2362 -0.0797
   39SOL     OW  153   1.425   2.417   0.437 -0.6361  0.1022 -0.2244
   39SOL    HW2  154   1.393   2.425   0.527  0.0811  0.6177 -0.0112
   39SOL    HW3  155   1.423   2.506   0.403  0.5078  0.1424 -0.2229
   39SOL    MW4  156   1.421   2.430   0.445 -0.3905  0.1755 -0.1961
   40SOL     OW  157   3.319   4.390   0.740  0.3081  0.1695 -0.7712
   40SOL    HW2  158   3.343   4.407   0.649 -1.0139 -0.5965 -1.2675
   40SOL    HW3  159   3.336   4.473   0.785  1.1575  0.4911 -1.6733
   40SOL    MW4  160   3.324   4.403   0.734  0.2457  0.1108 -0.9557
   41SOL     OW  161   3.140   0.382   0.857 -0.3863  0.1269 -0.2222
   41SOL    HW2  162   3.124   0.393   0.951 -0.6765  0.3696 -0.2992
   41SOL    HW3  163   3.075   0.439   0.815 -0.8620 -0.6796 -0.5930
   41SOL    MW4  164   3.129   0.391   0.864 -0.4874  0.0525 -0.2813
   42SOL     OW  165   1.325   0.719   0.427  0.1244 -0.1557  0.1104
   42SOL    HW2  166   1.410   0.674   0.426 -0.4662 -1.2956 -0.0478
   42SOL    HW3  167   1.320   0.758   0.514  0.5217 -0.6808  0.3767
   42SOL    MW4  168   1.336   0.718   0.438  0.0989 -0.3754  0.1246
   43SOL     OW  169   3.967   1.680   0.769  0.1833 -0.1597 -0.4661
   43SOL    HW2  170   4.057   1.663   0.798 -0.7354 -2.4690  1.1559
   43SOL    HW3  171   3.967   1.657   0.677  1.1399 -0.5686 -0.3725
   43SOL    MW4  172   3.979   1.675   0.761  0.1883 -0.5183 -0.2397
   44SOL     OW  173   2.012   1.458   0.377 -0.0277 -0.1636  0.3323
   44SOL    HW2  174   1.928   1.491   0.410 -1.3653 -2.6738 -0.3389
   44SOL    HW3  175   2.059   1.536   0.349 -1.5748  1.4297  2.0036
   44SOL    MW4  176   2.007   1.472   0.377 -0.4083 -0.2845  0.4642
   45SOL     OW  177   0.011   4.245   0.912  0.1421 -0.4168 -0.0632
   45SOL    HW2  178   0.006   4.273   1.003 -1.0601 -2.0992  0.4236
   45SOL    HW3  179  -0.064   4.286   0.870  0.4957  0.0750 -0.2196
   45SOL    MW4  180   0.001   4.254   0.919  0.0301 -0.5739 -0.0196
   46SOL     OW  181   0.477   3.209   0.723  0.2739  0.0271  0.5318
   46SOL    HW2  182   0.472   3.295   0.764  0.3111  0.2274  0.1207
   46SOL    HW3  183   0.410   3.157   0.767  0.0406  0.3552  0.5663
   46SOL    MW4  184   0.468   3.214   0.734  0.2480  0.0968  0.4821
   47SOL     OW  185   0.315   0.254   0.358 -0.4807 -0.3512 -0.1259
   47SOL    HW2  186   0.295   0.285   0.270 -0.9305  1.9269  0.7449
   47SOL    HW3  187   0.232   0.216   0.389 -0.3811 -0.9563 -0.5863
   47SOL    MW4  188   0.301   0.253   0.351 -0.5269 -0.1305 -0.0717
   48SOL     OW  189   3.192   3.700   0.440 -0.2176 -0.0974 -0.5279
   48SOL    HW2  190   3.270   3.645   0.430 -0.3256 -1.1019  3.2785
   48SOL    HW3  191   3.119   3.639   0.428 -0.4082  0.2255 -1.0293
   48SOL    MW4  192   3.193   3.684   0.437 -0.2570 -0.1874 -0.0918
   49SOL     OW  193   0.694   3.072   0.837  0.2130  0.3919  0.2095
   49SOL    HW2  194   0.695   2.980   0.809 -1.4738  0.7764 -1.2094
   49SOL    HW3  195   0.622   3.111   0.788 -0.6452  1.9291  2.5965
   49SOL    MW4  196   0.684   3.065   0.827 -0.1228  0.6454  0.3372
   50SOL     OW  197   3.330   2.847   0.736  0.2570  0.2144 -0.3868
   50SOL    HW2  198   3.346   2.924   0.791  1.5297  0.4480 -1.0529
   50SOL    HW3  199   3.315   2.883   0.648  0.3146 -0.2623 -0.5925
   50SOL    MW4  200   3.330   2.862   0.731  0.4325  0.1823 -0.5018
   51SOL     OW  201   2.480   1.552   0.880  0.0653 -0.2502  0.0937
   51SOL    HW2  202   2.553   1.597   0.838 -1.4946  0.9591 -1.4268
   51SOL    HW3  203   2.473   1.468   0.835 -0.2331  0.1469 -0.6166
   51SOL    MW4  204   2.488   1.547   0.869 -0.1799 -0.0383 -0.2006
   52SOL     OW  205   2.682   4.376   0.374 -0.4279  0.5364  0.2070
   52SOL    HW2  206   2.618   4.444   0.393 -0.0203  0.8682  0.3781
   52SOL    HW3  207   2.634   4.294   0.388 -0.9377  0.7849 -0.0794
   52SOL    MW4  208   2.667   4.374   0.378 -0.4414  0.6129  0.1918
   53SOL     OW  209   2.300   3.393   0.365 -0.5588 -0.2976  0.5178
   53SOL    HW2  210   2.376   3.368   0.312 -0.3271 -1.0777  1.1937
   53SOL    HW3  211   2.336   3.451   0.432 -0.4548 -1.1144  1.1762
   53SOL    MW4  212   2.315   3.397   0.367 -0.5145 -0.5083  0.6938
   54SOL     OW  213   4.424   1.145   0.832 -0.0162 -0.0567  0.4787
   54SOL    HW2  214   4.433   1.125   0.925 -0.8612 -0.8249  0.4101
   54SOL    HW3  215   4.430   1.060   0.788 -0.0988  0.2423 -0.1261
   54SOL    MW4  216   4.426   1.131   0.838 -0.1385 -0.1186  0.3899
   55SOL     OW  217   0.434   3.453   0.860 -0.4093 -0.2286 -0.1801
   55SOL    HW2  218   0.432   3.477   0.953  1.4332 -0.7353  0.0079
   55SOL    HW3  219   0.374   3.515   0.818 -0.6763  0.5010  1.2380
   55SOL    MW4  220   0.426   3.464   0.867 -0.2014 -0.1992  0.0318
   56SOL     OW  221   1.785   0.921   0.706  0.0836  0.0769  0.4483
   56SOL    HW2  222   1.829   0.996   0.749  1.4111 -0.0611 -0.6484
   56SOL    HW3  223   1.815   0.924   0.616 -0.3342 -1.4387  0.2475
   56SOL    MW4  224   1.795   0.932   0.700  0.2036 -0.1413  0.2771
   57SOL     OW  225   4.215   1.318   0.766  0.2265  0.1835 -0.0052
   57SOL    HW2  226   4.293   1.264   0.770  0.5891  0.6398 -0.7120
   57SOL    HW3  227   4.197   1.327   0.672  0.0880  1.1526  0.1069
   57SOL    MW4  228   4.223   1.312   0.754  0.2561  0.3716 -0.0837
   58SOL     OW  229   1.981   2.008   0.775  0.4536 -0.4406  0.2665
   58SOL    HW2  230   1.981   2.096   0.814  1.8914 -0.9180  1.3909
   58SOL    HW3  231   2.013   2.021   0.686  1.2509  0.1126  0.6255
   58SOL    MW4  232   1.985   2.022   0.769  0.7485 -0.4306  0.4623
   59SOL     OW  233   3.711   3.473   0.482 -0.2307 -0.3451  0.3096
   59SOL    HW2  234   3.752   3.502   0.563 -0.3009 -0.1374  0.2689
   59SOL    HW3  235   3.697   3.379   0.496 -0.1251 -0.3364  0.4866
   59SOL    MW4  236   3.715   3.464   0.495 -0.2260 -0.3165  0.3276
   60SOL     OW  237   1.325   4.019   0.481 -0.2682  0.4323  0.4115
   60SOL    HW2  238   1.325   4.003   0.575  1.6252  0.0191  0.3607
   60SOL    HW3  239   1.363   3.939   0.444 -2.4530 -0.0737 -0.8364
   60SOL    MW4  240   1.330   4.006   0.488 -0.3066  0.3110  0.2401
   61SOL     OW  241   3.799   2.581   0.313  0.2253  0.4266  0.4479
   61SOL    HW2  242   3.729   2.530   0.354  0.1498 -0.6770 -0.9919
   61SOL    HW3  243   3.762   2.608   0.229  0.2664  2.8883  1.1850
   61SOL    MW4  244   3.785   2.578   0.307  0.2208  0.6058  0.3552
   62SOL     OW  245   0.652   3.595   0.744 -0.1031 -0.4352  0.1605
   62SOL    HW2  246   0.634   3.581   0.651  0.1968  0.1233  0.0227
   62SOL    HW3  247   0.582   3.547   0.788 -0.5406 -0.2859 -0.3575
   62SOL    MW4  248   0.640   3.587   0.737 -0.1213 -0.3418  0.0740
   63SOL     OW  249   0.874   0.882   0.773 -0.0821  0.1217  0.4264
   63SOL    HW2  250   0.963   0.868   0.804 -0.2754  0.8329  1.3376
   63SOL    HW3  251   0.884   0.895   0.678  0.9876  1.7717  0.7263
   63SOL    MW4  252   0.887   0.882   0.765  0.0335  0.4332  0.5862
   64SOL     OW  253   3.113   3.184   0.723  0.7820  0.9470  0.3402
   64SOL    HW2  254   3.046   3.126   0.760  0.2187  0.8027 -0.8924
   64SOL    HW3  255   3.195   3.152   0.760  0.3479  0.0931  0.5859
   64SOL    MW4  256   3.115   3.172   0.733  0.6504  0.8153  0.2100
   65SOL     OW  257   0.913   2.376   0.741  0.2918 -0.0045 -0.2449
   65SOL    HW2  258   0.915   2.392   0.647 -0.1991  0.6247 -0.1445
   65SOL    HW3  259   0.920   2.462   0.781 -0.2152 -0.2061  0.2927
   65SOL    MW4  260   0.914   2.389   0.734  0.1602  0.0519 -0.1608
   66SOL     OW  261   1.800   0.206   0.436  0.0211  0.0904  0.1225
   66SOL    HW2  262   1.816   0.191   0.529  1.0132  0.8836  0.0852
   66SOL    HW3  263   1.804   0.119   0.397  3.0108  0.0850  0.3146
   66SOL    MW4  264   1.802   0.192   0.443  0.5465  0.1943  0.1429
   67SOL     OW  265   1.126   2.922   0.468  0.1860 -0.4684  0.1687
   67SOL    HW2  266   1.216   2.928   0.434 -0.9746  0.3364 -2.9162
   67SOL    HW3  267   1.088   2.848   0.422 -1.5895  0.9199 -0.6277
   67SOL    MW4  268   1.133   2.913   0.458 -0.2014 -0.1791 -0.3434
   68SOL     OW  269   0.880   1.147   0.852  0.1844 -0.4919  0.0997
   68SOL    HW2  270   0.806   1.199   0.820 -0.9071 -1.8142  0.4469
   68SOL    HW3  271   0.873   1.064   0.804  2.3465 -0.0619 -0.9972
   68SOL    MW4  272   0.869   1.143   0.841  0.3257 -0.6097  0.0008
   69SOL     OW  273   2.215   3.882   0.447 -0.0138  0.0212 -0.0852
   69SOL    HW2  274   2.289   3.840   0.404  0.7127 -0.4332  1.5561
   69SOL    HW3  275   2.208   3.968   0.406  1.9136  0.3714  0.2646
   69SOL    MW4  276   2.224   3.888   0.436  0.3363  0.0075  0.1775
   70SOL     OW  277   1.772   4.189   0.549 -0.4451 -0.0372 -0.2840
   70SOL    HW2  278   1.679   4.191   0.526 -0.6011 -0.0353  0.3417
   70SOL    HW3  279   1.781   4.250   0.622 -0.3524 -1.6609  1.0922
   70SOL    MW4  280   1.761   4.197   0.555 -0.4534 -0.2512 -0.0199
   71SOL     OW  281   2.960   1.270   0.705  0.0430 -0.1592  0.1441
   71SOL    HW2  282   2.960   1.354   0.750 -0.8270 -0.4103  0.6274
   71SOL    HW3  283   3.029   1.219   0.749  0.8497  0.4233 -0.4162
   71SOL    MW4  284   2.969   1.274   0.717  0.0347 -0.1155  0.1340
   72SOL     OW  285   2.131   2.765   0.512  0.0146  0.1498 -0.0651
   72SOL    HW2  286   2.076   2.815   0.452  0.8913  0.3359 -0.7287
   72SOL    HW3  287   2.220   2.798   0.497  0.5749 -1.3790 -0.3201
   72SOL    MW4  288   2.136   2.776   0.502  0.2042 -0.0274 -0.1863
   73SOL     OW  289   0.666   2.273   0.824 -0.0091  0.3208  0.1632
   73SOL    HW2  290   0.671   2.293   0.918  0.1002 -0.4175  0.3195
   73SOL    HW3  291   0.751   2.301   0.790 -0.8899  2.7519 -0.1592
   73SOL    MW4  292   0.678   2.280   0.832 -0.1109  0.5442  0.1413
   74SOL     OW  293   3.693   1.673   0.471 -0.5057 -0.3340 -0.1653
   74SOL    HW2  294   3.656   1.663   0.559 -0.6081  0.0585 -0.1643
   74SOL    HW3  295   3.719   1.765   0.467 -0.1369 -0.4503 -0.4031
   74SOL    MW4  296   3.692   1.684   0.482 -0.4706 -0.2975 -0.1965
   75SOL     OW  297   3.028   1.519   0.467  0.0562 -0.0169  0.0589
   75SOL    HW2  298   2.957   1.497   0.527 -1.0302  0.8762 -0.8678
   75SOL    HW3  299   3.091   1.568   0.520 -0.1726 -0.5532  0.8194
   75SOL    MW4  300   3.027   1.523   0.482 -0.1173  0.0302  0.0370
   76SOL     OW  301   1.535   0.327   0.374 -0.3385  0.3521  0.0960
   76SOL    HW2  302   1.456   0.276   0.392  0.2722 -0.2129  1.2236
   76SOL    HW3  303   1.604   0.281   0.420  0.6491  0.8823 -0.8404
   76SOL    MW4  304   1.533   0.315   0.383 -0.1276  0.3475  0.1212
   77SOL     OW  305   1.092   2.814   0.740  0.0701  0.4983  0.0113
   77SOL    HW2  306   1.171   2.765   0.765 -0.6905 -1.0216 -0.4945
   77SOL    HW3  307   1.102   2.829   0.646 -0.3419  0.1001 -0.0991
   77SOL    MW4  308   1.104   2.809   0.731 -0.0846  0.2452 -0.0700
   78SOL     OW  309   4.011   4.251   0.830 -0.5868 -0.1116 -0.0058
   78SOL    HW2  310   4.091   4.303   0.824  0.0609 -1.2084 -1.1580
   78SOL    HW3  311   3.940   4.311   0.810  0.1527  0.3301 -1.3275
   78SOL    MW4  312   4.013   4.266   0.827 -0.4038 -0.1981 -0.3322
   79SOL     OW  313   2.704   3.191   0.747  0.3294  0.6369 -0.1216
   79SOL    HW2  314   2.705   3.278   0.787 -1.3066  0.4262  0.4420
   79SOL    HW3  315   2.628   3.148   0.787  1.8742 -1.5152  0.6021
   79SOL    MW4  316   2.694   3.197   0.758  0.3174  0.3252  0.0482
   80SOL     OW  317   2.646   0.934   0.775 -0.2643 -0.2252  0.1611
   80SOL    HW2  318   2.719   0.872   0.783  0.3107  0.2195 -1.4795
   80SOL    HW3  319   2.630   0.940   0.681 -0.9741  1.3600  0.3691
   80SOL    MW4  320   2.653   0.927   0.763 -0.2821  0.0426 -0.0279
   81SOL     OW  321   2.660   2.679   0.241 -0.3507 -0.0709 -0.0604
   81SOL    HW2  322   2.637   2.598   0.196 -0.5044  0.4352 -0.9086
   81SOL    HW3  323   2.749   2.666   0.273  0.4612  0.2502 -2.1345
   81SOL    MW4  324   2.668   2.667   0.239 -0.2639  0.0383 -0.4460
   82SOL     OW  325   1.710   2.079   0.360  0.2129  0.0846 -0.4360
   82SOL    HW2  326   1.774   2.150   0.362  0.1671  0.1125  0.0568
   82SOL    HW3  327   1.761   2.000   0.377 -0.3282  0.4326  3.3790
   82SOL    MW4  328   1.725   2.078   0.363  0.1355  0.1342  0.1324
   83SOL     OW  329   1.615   3.348   0.374  0.2975  0.0596  0.1815
   83SOL    HW2  330   1.618   3.442   0.393 -2.2545  0.6362 -1.9487
   83SOL    HW3  331   1.617   3.343   0.278 -1.8405 -1.9094  0.1835
   83SOL    MW4  332   1.616   3.360   0.364 -0.3213 -0.1242 -0.0993
   84SOL     OW  333   1.443   2.116   0.443  0.6657 -0.2898  0.5041
   84SOL    HW2  334   1.422   2.207   0.422  0.2607 -0.5921 -0.4085
   84SOL    HW3  335   1.533   2.105   0.410  0.9042 -0.0768  1.0742
   84SOL    MW4  336   1.452   2.127   0.436  0.6437 -0.3016  0.4589
   85SOL     OW  337   0.969   2.701   0.407 -0.0665  0.4641  0.4090
   85SOL    HW2  338   0.889   2.748   0.429 -1.0498 -0.2930 -1.3940
   85SOL    HW3  339   0.952   2.611   0.436  0.4595  0.4853  0.7788
   85SOL    MW4  340   0.956   2.695   0.414 -0.1268  0.3670  0.2199
   86SOL     OW  341   2.240   4.289   0.856 -0.2525  0.2442 -0.0084
   86SOL    HW2  342   2.168   4.325   0.806 -0.3753  0.7427  0.5208
   86SOL    HW3  343   2.302   4.258   0.790  0.1191  1.9582 -0.4782
   86SOL    MW4  344   2.239   4.289   0.841 -0.2197  0.5361 -0.0006
   87SOL     OW  345   2.943   3.528   0.454 -0.6355 -0.5507  0.3524
   87SOL    HW2  346   2.853   3.512   0.426 -0.5455 -0.8224  0.2027
   87SOL    HW3  347   2.977   3.440   0.475 -0.2388 -0.5173 -0.1279
   87SOL    MW4  348   2.936   3.514   0.453 -0.5713 -0.5821  0.2693
   88SOL     OW  349   2.047   1.288   0.754 -0.3975  0.2085 -0.4412
   88SOL    HW2  350   2.031   1.373   0.795 -0.4172 -0.4650  0.9719
   88SOL    HW3  351   2.118   1.250   0.806  0.4598 -0.1223 -1.8386
   88SOL    MW4  352   2.055   1.295   0.766 -0.2870  0.0760 -0.4391
   89SOL     OW  353   0.381   1.627   0.721  0.4185 -0.0570  0.1559
   89SOL    HW2  354   0.432   1.639   0.641 -0.5446  0.0051 -0.4613
   89SOL    HW3  355   0.390   1.711   0.767 -1.5560  1.0596 -1.3893
   89SOL    MW4  356   0.389   1.640   0.717  0.0309  0.0985 -0.1294
   90SOL     OW  357   3.403   4.407   0.477  0.4331  0.2967 -0.3326
   90SOL    HW2  358   3.340   4.453   0.421  1.8400  1.8331 -0.6701
   90SOL    HW3  359   3.402   4.317   0.444 -1.6874  0.2530 -0.2453
   90SOL    MW4  360   3.394   4.401   0.465  0.3390  0.4936 -0.3657
   91SOL     OW  361   2.263   0.097   0.752  0.2685  0.2051 -0.6729
   91SOL    HW2  362   2.300   0.024   0.801 -0.9376  0.5733  0.8105
   91SOL    HW3  363   2.259   0.065   0.661  0.6046 -1.2344 -0.1950
   91SOL    MW4  364   2.267   0.083   0.746  0.1537  0.0637 -0.4141
   92SOL     OW  365   0.394   4.189   0.406  0.2876  0.0273  1.1112
   92SOL    HW2  366   0.355   4.250   0.469 -0.9519 -0.6748  1.0434
   92SOL    HW3  367   0.361   4.220   0.321 -1.6229 -1.6318  1.2008
   92SOL    MW4  368   0.384   4.201   0.403 -0.1280 -0.2842  1.1141
   93SOL     OW  369   4.261   2.828   0.755 -0.1059 -0.4037  0.2529
   93SOL    HW2  370   4.249   2.897   0.820 -0.9183 -0.0269 -0.2833
   93SOL    HW3  371   4.346   2.790   0.775  0.3750  0.7980  0.5218
   93SOL    MW4  372   4.271   2.833   0.766 -0.1497 -0.1954  0.2176
   94SOL     OW  373   2.738   1.620   0.715  0.0049 -0.1500 -0.2759
   94SOL    HW2  374   2.726   1.711   0.740 -0.3120 -0.3227  0.2178
   94SOL    HW3  375   2.757   1.622   0.621 -3.0177  0.1682 -0.9018
   94SOL    MW4  376   2.739   1.632   0.706 -0.4357 -0.1308 -0.2933
   95SOL     OW  377   2.676   3.441   0.839  0.2674 -0.1509 -0.2428
   95SOL    HW2  378   2.737   3.508   0.807 -0.8704  0.2761 -1.6179
   95SOL    HW3  379   2.682   3.446   0.934 -2.2397  4.3497 -0.1362
   95SOL    MW4  380   2.685   3.451   0.847 -0.2135  0.4992 -0.4102
   96SOL     OW  381   3.123   0.919   0.786  0.1745 -0.1420 -0.0665
   96SOL    HW2  382   3.123   1.006   0.826 -0.7172  0.2810 -0.9656
   96SOL    HW3  383   3.149   0.935   0.695  0.7715 -0.9152 -0.0334
   96SOL    MW4  384   3.126   0.933   0.779  0.1356 -0.1882 -0.1807
   97SOL     OW  385   0.601   3.575   0.459 -0.1844  0.1934 -0.1672
   97SOL    HW2  386   0.511   3.608   0.468 -0.3812 -0.7427  1.7219
   97SOL    HW3  387   0.591   3.481   0.448  0.5431  0.1560 -0.5349
   97SOL    MW4  388   0.588   3.567   0.459 -0.1144  0.0649  0.0335
   98SOL     OW  389   3.837   4.275   0.418 -0.2044  0.7227  0.3360
   98SOL    HW2  390   3.781   4.205   0.385 -1.2613  1.2735  0.9504
   98SOL    HW3  391   3.777   4.344   0.446  0.8346  2.1610 -0.8504
   98SOL    MW4  392   3.822   4.275   0.417 -0.2068  0.9852  0.2605
   99SOL     OW  393   0.658   1.276   0.766  0.0993 -0.0819  0.1709
   99SOL    HW2  394   0.667   1.370   0.781  1.6175 -0.4176  1.4811
   99SOL    HW3  395   0.592   1.248   0.830 -1.0777  0.2435 -0.8840
   99SOL    MW4  396   0.651   1.285   0.777  0.1443 -0.0833  0.2046
  100SOL     OW  397   0.526   2.069   0.270 -0.6476  0.1792  0.2595
  100SOL    HW2  398   0.580   2.043   0.344 -1.4793  2.4143  1.7171
  100SOL    HW3  399   0.588   2.083   0.198  0.5640  1.1448  1.4693
  100SOL    MW4  400   0.541   2.068   0.270 -0.5975  0.6015  0.6114
  101SOL     OW  401   2.492   4.577   0.474 -0.2807  0.0863  0.1411
  101SOL    HW2  402   2.519   4.533   0.554  0.2966  1.1009  0.5121
  101SOL    HW3  403   2.555   4.648   0.463  0.0198 -0.4124 -1.5499
  101SOL    MW4  404   2.503   4.581   0.483 -0.1649  0.1544 -0.0331
  102SOL     OW  405   0.510   4.537   0.555 -0.1481  0.4119  0.0391
  102SOL    HW2  406   0.525   4.628   0.529 -1.1310 -0.0936 -2.4250
  102SOL    HW3  407   0.593   4.492   0.534 -0.2113  0.4216 -0.2269
  102SOL    MW4  408   0.523   4.543   0.549 -0.2861  0.3465 -0.3211
  103SOL     OW  409   1.259   4.569   0.414 -0.0663 -0.0661 -0.0935
  103SOL    HW2  410   1.256   4.662   0.434  0.3946 -0.3744  1.4213
  103SOL    HW3  411   1.219   4.562   0.327 -1.0708  1.4097  0.2412
  103SOL    MW4  412   1.253   4.580   0.405 -0.1380  0.0879  0.1505
  104SOL     OW  413   1.352   1.599   0.735  0.2748  0.0709  0.0294
  104SOL    HW2  414   1.269   1.582   0.781 -0.2761  1.5258 -0.4038
  104SOL    HW3  415   1.374   1.689   0.759  0.3331  0.6203 -2.0178
  104SOL    MW4  416   1.344   1.609   0.744  0.2098  0.3353 -0.2978
  105SOL     OW  417   2.350   4.548   0.885 -0.1176 -0.1093 -0.0910
  105SOL    HW2  418   2.312   4.460   0.880 -0.4166  0.0565 -0.6492
  105SOL    HW3  419   2.391   4.550   0.972 -0.0814 -0.8110 -0.0822
  105SOL    MW4  420   2.351   4.536   0.896 -0.1523 -0.1800 -0.1635
  106SOL     OW  421   1.537   4.483   0.443 -0.3059 -0.0720  0.4840
  106SOL    HW2  422   1.535   4.390   0.422  0.2423 -0.6200  2.7694
  106SOL    HW3  423   1.448   4.513   0.424 -0.9580 -1.4310  1.2873
  106SOL    MW4  424   1.525   4.475   0.438 -0.3196 -0.3236  0.8915
  107SOL     OW  425   4.385   3.219   0.532 -0.4019 -0.2424  0.6053
  107SOL    HW2  426   4.322   3.158   0.494  1.2653 -0.4236 -2.0475
  107SOL    HW3  427   4.360   3.304   0.498 -1.0339  0.1499  2.0266
  107SOL    MW4  428   4.374   3.222   0.523 -0.2653 -0.2146  0.4428
  108SOL     OW  429   0.240   3.871   0.838 -0.3696 -0.0488  0.2594
  108SOL    HW2  430   0.314   3.929   0.820 -0.5355  0.4248  1.0764
  108SOL    HW3  431   0.233   3.870   0.933 -1.2838 -0.2557  0.1923
  108SOL    MW4  432   0.249   3.878   0.848 -0.5121 -0.0136  0.3583
  109SOL     OW  433   2.541   1.823   0.392 -0.0861  0.2290 -0.0365
  109SOL    HW2  434   2.630   1.792   0.411  0.7136  2.4164 -0.0938
  109SOL    HW3  435   2.484   1.767   0.445  1.5271  0.8114  2.3569
  109SOL    MW4  436   2.545   1.811   0.402  0.2322  0.5944  0.2717
  110SOL     OW  437   4.430   4.580   0.484 -0.2364 -0.1410 -0.5613
  110SOL    HW2  438   4.335   4.595   0.483 -0.1706  0.3716  0.5776
  110SOL    HW3  439   4.440   4.492   0.520 -0.2479  0.0781 -0.0195
  110SOL    MW4  440   4.419   4.570   0.489 -0.2292 -0.0444 -0.3395
  111SOL     OW  441   2.530   4.127   0.427  0.0230  0.0517  0.1398
  111SOL    HW2  442   2.603   4.071   0.454 -0.5010 -0.8266 -0.2242
  111SOL    HW3  443   2.506   4.094   0.340 -1.2294 -0.1040  0.5389
  111SOL    MW4  444   2.537   4.115   0.419 -0.2114 -0.0847  0.1444
  112SOL     OW  445   1.766   1.601   0.434  0.4789 -0.4130 -0.1899
  112SOL    HW2  446   1.758   1.579   0.527 -1.6795  0.3873 -0.1643
  112SOL    HW3  447   1.800   1.690   0.434  0.6542 -0.4799 -0.1709
  112SOL    MW4  448   1.770   1.610   0.446  0.2172 -0.3163 -0.1840
  113SOL     OW  449   2.228   0.021   0.487  0.4708  0.3441  0.0132
  113SOL    HW2  450   2.315  -0.016   0.474  1.2853  2.3952 -0.5616
  113SOL    HW3  451   2.233   0.108   0.446 -1.6137  0.7698  0.6296
  113SOL    MW4  452   2.240   0.028   0.480  0.3032  0.6709  0.0187
  114SOL     OW  453   3.001   2.147   0.491 -0.1632 -0.1196 -0.1177
  114SOL    HW2  454   3.017   2.241   0.488 -0.1185 -0.1465 -0.8073
  114SOL    HW3  455   2.981   2.129   0.583 -0.0179  0.5352  0.0450
  114SOL    MW4  456   3.001   2.157   0.503 -0.1382 -0.0368 -0.1872
  115SOL     OW  457   4.260   0.563   0.527 -0.3937  0.0912 -0.0027
  115SOL    HW2  458   4.222   0.485   0.488 -0.3558  0.0251  0.0927
  115SOL    HW3  459   4.335   0.585   0.471 -0.9936  0.6313 -0.6047
  115SOL    MW4  460   4.265   0.556   0.514 -0.4679  0.1538 -0.0696
  116SOL     OW  461   4.066   2.559   0.467 -0.3333  0.4144  0.0230
  116SOL    HW2  462   3.981   2.552   0.424  0.3723 -0.0503 -1.2985
  116SOL    HW3  463   4.104   2.471   0.460 -0.1194  0.3760  1.4195
  116SOL    MW4  464   4.060   2.546   0.461 -0.2120  0.3481  0.0329
  117SOL     OW  465   1.971   0.740   0.821  0.0317  0.0790  0.4095
  117SOL    HW2  466   1.896   0.793   0.794 -0.1651 -0.3227  0.1649
  117SOL    HW3  467   1.974   0.669   0.758  1.0684  0.4983 -0.0256
  117SOL    MW4  468   1.961   0.738   0.809  0.1425  0.0813  0.3198
  118SOL     OW  469   3.795   3.010   0.861  0.0095  0.3247 -0.4316
  118SOL    HW2  470   3.808   2.921   0.829 -0.2870 -0.0096  0.3668
  118SOL    HW3  471   3.883   3.047   0.864  0.4727 -0.8922  1.9543
  118SOL    MW4  472   3.808   3.003   0.857  0.0315  0.1201 -0.0115
  119SOL     OW  473   4.268   3.618   0.749 -0.1131  0.1891 -0.3406
  119SOL    HW2  474   4.258   3.643   0.657 -1.0968 -0.9451 -0.5586
  119SOL    HW3  475   4.283   3.700   0.795  1.1214  0.7032 -1.6098
  119SOL    MW4  476   4.269   3.632   0.743 -0.0800  0.1073 -0.5368
  120SOL     OW  477   0.155   1.556   0.850 -0.5193  0.2559  0.6332
  120SOL    HW2  478   0.159   1.460   0.847 -1.6318  0.2007  0.4713
  120SOL    HW3  479   0.229   1.585   0.797 -0.2863 -0.5185  0.5242
  120SOL    MW4  480   0.165   1.547   0.843 -0.6353  0.1465  0.5975
  121SOL     OW  481   2.691   4.017   0.763  0.5629 -0.4553  0.1972
  121SOL    HW2  482   2.761   3.959   0.792 -0.4313 -1.3971  0.7559
  121SOL    HW3  483   2.611   3.978   0.798  0.0302  2.2024  2.0920
  121SOL    MW4  484   2.690   4.004   0.771  0.3614 -0.2289  0.5209
  122SOL     OW  485   3.798   0.470   0.507 -0.1901 -0.3276 -0.6791
  122SOL    HW2  486   3.787   0.477   0.602  0.2955 -0.4353 -0.6139
  122SOL    HW3  487   3.808   0.560   0.477  1.8506 -0.4279 -0.3547
  122SOL    MW4  488   3.798   0.482   0.515  0.1432 -0.3550 -0.6277
  123SOL     OW  489   3.654   0.985   0.441  0.0885  0.4433  0.4178
  123SOL    HW2  490   3.591   0.952   0.377  0.6341  0.5873 -0.1916
  123SOL    HW3  491   3.620   0.955   0.526 -0.2617 -0.3221  0.0074
  123SOL    MW4  492   3.641   0.977   0.444  0.1143  0.3613  0.2833
  124SOL     OW  493   4.094   4.307   0.537 -0.4688 -0.1458  0.3119
  124SOL    HW2  494   4.005   4.295   0.506 -0.8720  0.0841  1.3531
  124SOL    HW3  495   4.089   4.292   0.631  0.3742  1.0035  0.5550
  124SOL    MW4  496   4.082   4.303   0.545 -0.4108  0.0361  0.4813
  125SOL     OW  497   0.225   2.039   0.776 -0.4226 -0.3253  0.4969
  125SOL    HW2  498   0.301   1.989   0.807  1.0003 -0.0386 -2.3618
  125SOL    HW3  499   0.237   2.126   0.813  0.5904 -0.3155  0.1577
  125SOL    MW4  500   0.236   2.044   0.785 -0.1012 -0.2862  0.0750
  126SOL     OW  501   0.622   2.024   0.754  0.0271 -0.2672  0.1526
  126SOL    HW2  502   0.695   1.970   0.784 -0.9551 -1.3174  0.6996
  126SOL    HW3  503   0.647   2.113   0.777  1.5885 -0.4843 -0.5892
  126SOL    MW4  504   0.635   2.028   0.761  0.1035 -0.4344  0.1269
  127SOL     OW  505   1.091   1.763   0.347 -0.2199  0.0629  0.6045
  127SOL    HW2  506   1.141   1.683   0.361 -0.6824 -0.6475 -1.5461
  127SOL    HW3  507   1.000   1.736   0.353 -0.3733  0.4774  0.1889
  127SOL    MW4  508   1.086   1.749   0.349 -0.3012  0.0238  0.2660
  128SOL     OW  509   0.288   1.931   0.239 -0.5985  0.2298  0.1121
  128SOL    HW2  510   0.268   1.941   0.332 -0.7930 -0.1487  0.1137
  128SOL    HW3  511   0.376   1.968   0.229 -0.6746  0.4923  0.3999
  128SOL    MW4  512   0.297   1.937   0.250 -0.6342  0.2145  0.1503
  129SOL     OW  513   1.998   1.539   0.905 -0.5646  0.1152  0.0312
  129SOL    HW2  514   2.081   1.578   0.876 -0.5316 -0.9423 -1.3615
  129SOL    HW3  515   1.931   1.585   0.855 -0.6287 -0.6505 -0.5982
  129SOL    MW4  516   2.000   1.551   0.894 -0.5687 -0.1253 -0.2356
  130SOL     OW  517   3.244   0.689   0.152 -0.2093  0.1597 -0.3114
  130SOL    HW2  518   3.171   0.656   0.100 -1.7049  0.1508  1.7542
  130SOL    HW3  519   3.275   0.613   0.202 -0.2371  0.6687  0.4951
  130SOL    MW4  520   3.239   0.674   0.152 -0.4103  0.2257  0.0676
  131SOL     OW  521   0.817   0.233   0.499 -0.2471 -0.2698  0.1619
  131SOL    HW2  522   0.850   0.193   0.580 -0.7020  0.2841  0.6238
  131SOL    HW3  523   0.727   0.202   0.492  0.5981 -2.4613 -1.5471
  131SOL    MW4  524   0.810   0.223   0.509 -0.1956 -0.4858 -0.0026
  132SOL     OW  525   1.827   0.645   0.359 -0.4249  0.5645  0.6308
  132SOL    HW2  526   1.787   0.670   0.276 -1.1721  0.4558  0.9546
  132SOL    HW3  527   1.853   0.729   0.399 -1.2786  0.7243  0.8853
  132SOL    MW4  528   1.825   0.660   0.353 -0.6361  0.5713  0.7071
  133SOL     OW  529   3.739   0.780   0.882 -0.1805 -0.3147  0.4557
  133SOL    HW2  530   3.828   0.801   0.853 -0.3323 -1.0869 -0.6020
  133SOL    HW3  531   3.747   0.763   0.976  0.6713  0.2603  0.4911
  133SOL    MW4  532   3.752   0.781   0.890 -0.0882 -0.3407  0.3208
  134SOL     OW  533   4.385   1.630   0.487  0.0437 -0.4421  0.4784
  134SOL    HW2  534   4.476   1.607   0.471  0.3724  0.3479  1.2310
  134SOL    HW3  535   4.384   1.667   0.575 -0.5256  2.2210 -0.5947
  134SOL    MW4  536   4.397   1.632   0.496  0.0120  0.0135  0.4361
  135SOL     OW  537   0.229   3.093   0.832  0.0652  0.0721  0.0494
  135SOL    HW2  538   0.233   3.091   0.927  0.9020  1.1190  0.0389
  135SOL    HW3  539   0.243   3.002   0.806  0.0831 -0.1771  0.9135
  135SOL    MW4  540   0.231   3.081   0.841  0.1780  0.1774  0.1620
  136SOL     OW  541   0.030   0.629   0.425 -0.1033  0.4440 -0.2668
  136SOL    HW2  542   0.028   0.722   0.447  0.4502  0.1191  1.2547
  136SOL    HW3  543   0.122   0.605   0.430 -0.0930  0.0996 -1.9519
  136SOL    MW4  544   0.042   0.638   0.428 -0.0289  0.3557 -0.2884
  137SOL     OW  545   3.421   0.362   0.619  0.0173  0.1557  0.3204
  137SOL    HW2  546   3.419   0.438   0.677 -0.1629 -0.1634  0.7397
  137SOL    HW3  547   3.332   0.357   0.583  0.4294  1.0123 -0.8607
  137SOL    MW4  548   3.409   0.371   0.622  0.0479  0.2266  0.2199
  138SOL     OW  549   4.032   0.125   0.739 -0.0397  0.0622 -0.4785
  138SOL    HW2  550   4.049   0.202   0.795 -0.6008 -0.2995  0.1990
  138SOL    HW3  551   4.104   0.065   0.759 -0.9613 -0.6176  0.8586
  138SOL    MW4  552   4.044   0.128   0.749 -0.2353 -0.0752 -0.2127
  139SOL     OW  553   1.284   1.549   0.427  0.2067 -0.0174  0.0722
  139SOL    HW2  554   1.321   1.577   0.511 -0.6955 -0.6672  0.6859
  139SOL    HW3  555   1.355   1.502   0.383  0.8638  0.8340  0.2122
  139SOL    MW4  556   1.298   1.547   0.432  0.1744  0.0092  0.1717
  140SOL     OW  557   4.462   2.439   0.809 -0.4415  0.2207 -0.1554
  140SOL    HW2  558   4.388   2.386   0.839  0.0665 -0.9109 -0.8571
  140SOL    HW3  559   4.462   2.428   0.714 -0.3435  1.5263 -0.3252
  140SOL    MW4  560   4.452   2.431   0.800 -0.3615  0.2437 -0.2704
  141SOL     OW  561   0.003   0.911   0.468 -0.3518 -0.0930 -0.5696
  141SOL    HW2  562  -0.074   0.961   0.440  1.1218  2.7734  0.2519
  141SOL    HW3  563   0.077   0.971   0.454  1.5879 -2.3248 -0.2027
  141SOL    MW4  564   0.003   0.926   0.463  0.0986 -0.0093 -0.4128
  142SOL     OW  565   2.975   1.161   0.252  0.6180 -0.0043 -0.0218
  142SOL    HW2  566   3.022   1.083   0.223  0.3114  0.0307 -0.6197
  142SOL    HW3  567   3.028   1.234   0.222  0.0257  0.0410 -0.9860
  142SOL    MW4  568   2.988   1.160   0.244  0.4994  0.0063 -0.2279
  143SOL     OW  569   2.428   4.176   0.685 -0.1562  0.1449 -0.4533
  143SOL    HW2  570   2.507   4.209   0.729 -1.0591  1.4381  0.2614
  143SOL    HW3  571   2.455   4.159   0.595  0.7975  1.1584 -0.3677
  143SOL    MW4  572   2.442   4.178   0.679 -0.1495  0.4493 -0.3477
  144SOL     OW  573   3.360   0.490   0.321  0.2188  0.0896 -0.1709
  144SOL    HW2  574   3.438   0.437   0.307 -0.8273 -1.2326 -1.1458
  144SOL    HW3  575   3.305   0.437   0.379 -1.1878 -0.2884 -1.7980
  144SOL    MW4  576   3.363   0.476   0.327 -0.1048 -0.1347 -0.5142
  145SOL     OW  577   2.880   2.272   0.857  0.5372  0.2090  0.0419
  145SOL    HW2  578   2.809   2.335   0.844 -0.2019 -0.8023 -0.8828
  145SOL    HW3  579   2.894   2.270   0.952 -0.0439  1.0796  0.1515
  145SOL    MW4  580   2.873   2.280   0.868  0.3630  0.1904 -0.0656
  146SOL     OW  581   0.325   3.657   0.469  0.1786 -0.0093 -0.4472
  146SOL    HW2  582   0.283   3.649   0.555  0.7548 -0.4191 -0.2033
  146SOL    HW3  583   0.294   3.741   0.435 -0.8634 -0.3192 -0.2798
  146SOL    MW4  584   0.315   3.667   0.476  0.1172 -0.1043 -0.3929
  147SOL     OW  585   2.053   4.415   0.690  0.1729 -0.5272  0.6151
  147SOL    HW2  586   2.058   4.439   0.598  0.2320  0.9943  1.0001
  147SOL    HW3  587   1.969   4.370   0.699  0.8546 -2.0595 -0.4724
  147SOL    MW4  588   2.042   4.413   0.679  0.2706 -0.5286  0.5224
  148SOL     OW  589   2.884   0.790   0.809  0.0696  0.0317  0.1566
  148SOL    HW2  590   2.875   0.776   0.903 -1.3160  2.1888  0.3881
  148SOL    HW3  591   2.972   0.825   0.799  0.2402 -0.2510  0.6533
  148SOL    MW4  592   2.894   0.793   0.820 -0.0907  0.2790  0.2527
  149SOL     OW  593   3.572   3.157   0.768  0.3591 -0.0925  0.0173
  149SOL    HW2  594   3.587   3.250   0.782  0.7770 -0.0746 -0.5454
  149SOL    HW3  595   3.646   3.113   0.810  0.9837 -0.0920 -1.0464
  149SOL    MW4  596   3.584   3.163   0.775  0.4966 -0.0900 -0.1973
  150SOL     OW  597   3.180   1.372   0.295  0.1987 -0.1013 -0.3020
  150SOL    HW2  598   3.125   1.411   0.364 -0.2942 -0.9970 -0.1743
  150SOL    HW3  599   3.242   1.441   0.272  0.1480  0.3264  0.8007
  150SOL    MW4  600   3.181   1.386   0.301  0.1270 -0.1631 -0.1397
  151SOL     OW  601   3.344   2.671   0.416  0.1524 -0.3345 -0.2062
  151SOL    HW2  602   3.255   2.635   0.410 -0.2189  0.5909 -0.3555
  151SOL    HW3  603   3.331   2.766   0.414  1.1512 -0.1996 -0.2654
  151SOL    MW4  604   3.330   2.679   0.415  0.2352 -0.1946 -0.2337
  152SOL     OW  605   0.870   3.949   0.484  0.1891  0.0703 -0.3228
  152SOL    HW2  606   0.886   3.859   0.455  3.0446  0.8866 -1.5101
  152SOL    HW3  607   0.869   3.943   0.580  0.1587 -1.2442 -0.3932
  152SOL    MW4  608   0.872   3.937   0.493  0.5618  0.0046 -0.4888
  153SOL     OW  609   3.590   3.457   0.823  0.2462  0.0706 -0.2781
  153SOL    HW2  610   3.499   3.474   0.800 -0.0286  0.4614  1.0619
  153SOL    HW3  611   3.640   3.527   0.780 -0.2693  0.8947  0.4743
  153SOL    MW4  612   3.585   3.468   0.814  0.1419  0.2309 -0.0020
  154SOL     OW  613   2.214   2.657   0.867  0.1067 -0.0332 -0.5416
  154SOL    HW2  614   2.208   2.654   0.963 -0.2443  0.8692 -0.5323
  154SOL    HW3  615   2.239   2.569   0.842  1.3901  0.0336  0.4744
  154SOL    MW4  616   2.216   2.645   0.876  0.2297  0.0946 -0.4063
  155SOL     OW  617   2.904   3.871   0.843  0.3499  0.7519 -0.4590
  155SOL    HW2  618   2.978   3.916   0.802  0.8724  0.6079  0.3210
  155SOL    HW3  619   2.920   3.878   0.937 -1.3895  1.9886 -0.2292
  155SOL    MW4  620   2.916   3.878   0.850  0.1893  0.8961 -0.3258
  156SOL     OW  621   2.818   3.075   0.503 -0.7373 -0.4215 -0.3223
  156SOL    HW2  622   2.740   3.048   0.455 -1.2683 -0.8711  0.7679
  156SOL    HW3  623   2.784   3.118   0.582  0.1118  0.6734 -0.5339
  156SOL    MW4  624   2.803   3.077   0.507 -0.6954 -0.3364 -0.2063
  157SOL     OW  625   0.223   0.488   0.679 -0.2026  0.1181 -0.1256
  157SOL    HW2  626   0.295   0.459   0.734  0.6979  0.4644 -1.0991
  157SOL    HW3  627   0.144   0.458   0.724  0.3756  2.5669  2.6332
  157SOL    MW4  628   0.222   0.480   0.692 -0.0075  0.4869  0.1100
  158SOL     OW  629   3.165   1.172   0.870 -0.4028  0.1556  0.6604
  158SOL    HW2  630   3.242   1.210   0.829  0.0166 -1.0029  0.3709
  158SOL    HW3  631   3.178   1.186   0.964 -0.5499  1.2717  0.5197
  158SOL    MW4  632   3.177   1.179   0.877 -0.3669  0.1500  0.6037
  159SOL     OW  633   2.305   3.159   0.502 -0.4041  0.0294  0.5230
  159SOL    HW2  634   2.279   3.180   0.592 -0.1420  1.0093  0.3794
  159SOL    HW3  635   2.269   3.231   0.450  1.3769  0.6605  0.1311
  159SOL    MW4  636   2.296   3.171   0.507 -0.1345  0.2420  0.4524
  160SOL     OW  637   1.795   3.932   0.676  0.4839 -0.2500  0.0648
  160SOL    HW2  638   1.794   4.023   0.645 -1.6449  0.3496  1.7130
  160SOL    HW3  639   1.879   3.923   0.720  1.4015  0.4191 -1.5066
  160SOL    MW4  640   1.806   3.943   0.678  0.3241 -0.0826  0.0750
  161SOL     OW  641   3.950   1.958   0.834  0.0922 -0.5214  0.1504
  161SOL    HW2  642   4.043   1.962   0.813 -0.2789  0.8174 -1.3227
  161SOL    HW3  643   3.920   1.876   0.795  0.7427 -1.2089  1.0679
  161SOL    MW4  644   3.958   1.948   0.826  0.1290 -0.4355  0.0771
  162SOL     OW  645   1.517   2.065   0.716 -0.0942 -0.1043 -0.0975
  162SOL    HW2  646   1.497   2.088   0.626  0.0961 -0.1937 -0.1617
  162SOL    HW3  647   1.449   2.000   0.739  0.8525 -1.3352 -0.7198
  162SOL    MW4  648   1.505   2.059   0.707  0.0558 -0.2785 -0.1881
  163SOL     OW  649   2.710   0.373   0.815 -0.3855  0.1782 -0.1884
  163SOL    HW2  650   2.693   0.368   0.909 -0.1118 -0.8937 -0.1805
  163SOL    HW3  651   2.696   0.283   0.784 -0.4983  0.5330 -1.1747
  163SOL    MW4  652   2.706   0.360   0.823 -0.3643  0.0836 -0.3175
  164SOL     OW  653   2.049   3.057   0.852  0.0403 -0.5450  0.2400
  164SOL    HW2  654   2.048   2.973   0.806  1.5452 -0.7400  0.5427
  164SOL    HW3  655   1.967   3.100   0.825 -0.2702 -1.6855 -0.6806
  164SOL    MW4  656   2.038   3.052   0.842  0.1979 -0.7212  0.1585
  165SOL     OW  657   1.346   1.867   0.833  0.0984 -0.0551  0.2212
  165SOL    HW2  658   1.262   1.906   0.808  0.2236 -0.3929 -0.7708
  165SOL    HW3  659   1.343   1.861   0.928 -0.8990  0.1639  0.2060
  165SOL    MW4  660   1.334   1.872   0.842 -0.0167 -0.0708  0.0883
  166SOL     OW  661   3.398   1.249   0.748 -0.3377 -0.1370 -0.1878
  166SOL    HW2  662   3.419   1.273   0.658 -0.9192 -0.5773 -0.4435
  166SOL    HW3  663   3.462   1.181   0.771  0.4025  0.6332  0.0528
  166SOL    MW4  664   3.410   1.243   0.739 -0.3167 -0.0935 -0.1898
  167SOL     OW  665   3.199   3.948   0.337  0.2669 -0.2542 -0.4076
  167SOL    HW2  666   3.197   3.926   0.244 -1.6489  0.7846 -0.6421
  167SOL    HW3  667   3.178   3.866   0.382  1.6511 -0.8609 -0.8691
  167SOL    MW4  668   3.196   3.934   0.331  0.1968 -0.1972 -0.4994
  168SOL     OW  669   1.615   1.248   0.485 -0.0023  0.3620  0.2055
  168SOL    HW2  670   1.545   1.186   0.468 -0.7690  0.9320  1.2248
  168SOL    HW3  671   1.592   1.325   0.432  1.2007 -0.3839 -1.4354
  168SOL    MW4  672   1.603   1.250   0.476  0.0553  0.3388  0.1235
  169SOL     OW  673   1.572   3.597   0.755 -0.1175 -0.0889 -0.1050
  169SOL    HW2  674   1.584   3.581   0.661  0.5657 -1.4360  0.2107
  169SOL    HW3  675   1.478   3.585   0.769 -0.2777  0.4637 -0.6774
  169SOL    MW4  676   1.561   3.594   0.744 -0.0485 -0.1937 -0.1389
  170SOL     OW  677   3.785   4.420   0.766  0.0093 -0.2338  0.3077
  170SOL    HW2  678   3.744   4.436   0.680 -2.2574 -0.3059  1.3258
  170SOL    HW3  679   3.795   4.508   0.803  0.2102 -0.2562  0.3025
  170SOL    MW4  680   3.781   4.434   0.759 -0.2633 -0.2463  0.4414
  171SOL     OW  681   0.482   4.279   0.877  0.0923 -0.6035  0.0181
  171SOL    HW2  682   0.470   4.252   0.968 -0.1192 -0.5234  0.0144
  171SOL    HW3  683   0.489   4.197   0.828 -1.5586 -0.6683 -0.1293
  171SOL    MW4  684   0.481   4.265   0.883 -0.1534 -0.6015 -0.0018
  172SOL     OW  685   4.055   1.182   0.483 -0.0900 -0.1491 -0.0867
  172SOL    HW2  686   3.964   1.210   0.475 -0.5511 -1.4135  0.4882
  172SOL    HW3  687   4.107   1.259   0.461 -1.3063  0.8273  0.4234
  172SOL    MW4  688   4.050   1.196   0.479 -0.3113 -0.1871  0.0565
  173SOL     OW  689   0.304   0.534   0.433 -0.0880 -0.1174  0.8306
  173SOL    HW2  690   0.301   0.521   0.528  1.3087  0.0610  0.9049
  173SOL    HW3  691   0.307   0.446   0.396  0.1760 -0.1677  0.9754
  173SOL    MW4  692   0.304   0.521   0.441  0.1311 -0.1005  0.8595
  174SOL     OW  693   4.466   0.397   0.815  0.7934  0.3889 -0.2478
  174SOL    HW2  694   4.390   0.453   0.797  1.0284  0.4831 -0.9958
  174SOL    HW3  695   4.472   0.394   0.910  0.3305  1.0365 -0.1914
  174SOL    MW4  696   4.457   0.404   0.825  0.7633  0.4868 -0.3391
  175SOL     OW  697   4.380   2.865   0.251  0.0800  0.0449  0.3622
  175SOL    HW2  698   4.327   2.856   0.330 -1.5790 -0.2738 -0.7706
  175SOL    HW3  699   4.332   2.927   0.197  1.7274  1.0439  0.0131
  175SOL    MW4  700   4.367   2.872   0.254  0.0785  0.1347  0.1667
  176SOL     OW  701   0.469   0.989   0.491  0.0660  0.1409 -0.3004
  176SOL    HW2  702   0.495   0.903   0.459  0.4684 -0.6526  2.1295
  176SOL    HW3  703   0.547   1.043   0.480 -0.2272  0.2657 -1.9511
  176SOL    MW4  704   0.482   0.985   0.485  0.0804  0.0526 -0.1976
  177SOL     OW  705   2.020   4.658   0.826  0.1776  0.6469 -0.3568
  177SOL    HW2  706   2.019   4.568   0.794  0.2461  0.4133  0.2797
  177SOL    HW3  707   2.103   4.694   0.796  1.1669 -0.2108  1.2608
  177SOL    MW4  708   2.031   4.651   0.818  0.3172  0.5029 -0.0594
  178SOL     OW  709   0.262   2.838   0.762  0.1928 -0.1056 -0.2264
  178SOL    HW2  710   0.184   2.795   0.798  0.8735 -1.0720  0.1049
  178SOL    HW3  711   0.249   2.835   0.667  0.5550 -1.6835 -0.2445
  178SOL    MW4  712   0.250   2.832   0.754  0.3304 -0.4413 -0.1850
  179SOL     OW  713   0.089   3.046   0.382 -0.3320 -0.7352 -0.0102
  179SOL    HW2  714   0.026   2.998   0.328 -1.5106 -0.7572  1.3304
  179SOL    HW3  715   0.035   3.105   0.435  0.7465 -0.9855  1.3993
  179SOL    MW4  716   0.073   3.047   0.382 -0.3452 -0.7711  0.3526
  180SOL     OW  717   3.708   3.713   0.329  0.4393  0.2040 -0.0364
  180SOL    HW2  718   3.700   3.630   0.376 -0.4774 -0.0653 -0.6411
  180SOL    HW3  719   3.670   3.696   0.243 -0.0048  1.3113 -0.0810
  180SOL    MW4  720   3.702   3.700   0.324  0.2598  0.3146 -0.1220
  181SOL     OW  721   3.751   2.093   0.708 -0.2866  0.7349 -0.0695
  181SOL    HW2  722   3.832   2.058   0.745 -0.5549 -0.0807 -0.2494
  181SOL    HW3  723   3.750   2.185   0.735  0.5363  0.6617  0.2082
  181SOL    MW4  724   3.761   2.101   0.717 -0.2135  0.6176 -0.0566
  182SOL     OW  725   3.414   4.653   0.837 -0.2695 -0.0223  0.2292
  182SOL    HW2  726   3.430   4.682   0.927  0.2398  0.2411  0.0524
  182SOL    HW3  727   3.490   4.684   0.788 -0.4386 -0.3645 -0.2482
  182SOL    MW4  728   3.427   4.661   0.843 -0.2246 -0.0327  0.1429
  183SOL     OW  729   2.673   1.407   0.394 -0.0558  0.1632  0.0419
  183SOL    HW2  730   2.585   1.386   0.425  0.2602 -1.0751  0.1558
  183SOL    HW3  731   2.718   1.322   0.393  0.4703  0.4427 -2.1455
  183SOL    MW4  732   2.668   1.393   0.398  0.0553  0.0367 -0.2317
  184SOL     OW  733   0.633   1.538   0.806 -0.4284  0.3797 -0.2969
  184SOL    HW2  734   0.541   1.559   0.794 -0.5102 -0.1632 -0.6497
  184SOL    HW3  735   0.647   1.541   0.901 -1.0371 -0.4725 -0.1764
  184SOL    MW4  736   0.623   1.541   0.817 -0.5195  0.1956 -0.3275
  185SOL     OW  737   2.216   3.984   0.694  0.3134 -0.2298  0.2968
  185SOL    HW2  738   2.275   4.058   0.678  0.8073 -0.9057 -1.0158
  185SOL    HW3  739   2.202   3.945   0.608 -1.7005 -0.3480  0.6664
  185SOL    MW4  740   2.222   3.989   0.681  0.1129 -0.3346  0.1724
  186SOL     OW  741   4.223   3.736   0.472 -0.0437  0.2830  0.2167
  186SOL    HW2  742   4.129   3.722   0.480  0.1901 -0.9560  0.9297
  186SOL    HW3  743   4.232   3.829   0.451 -1.4987  0.0494 -1.5380
  186SOL    MW4  744   4.212   3.746   0.470 -0.2048  0.0887  0.0792
  187SOL     OW  745   0.879   3.949   0.775  0.0561 -0.1920 -0.3954
  187SOL    HW2  746   0.964   3.926   0.813  0.3380 -0.2724 -1.0621
  187SOL    HW3  747   0.866   4.041   0.796 -0.1418 -0.4273  0.5451
  187SOL    MW4  748   0.888   3.958   0.783  0.0672 -0.2336 -0.3593
  188SOL     OW  749   1.819   0.411   0.801  0.2973  0.1957  0.1022
  188SOL    HW2  750   1.813   0.319   0.776 -1.7253  0.6561 -1.1691
  188SOL    HW3  751   1.888   0.446   0.745 -0.5731  0.0037 -1.0975
  188SOL    MW4  752   1.828   0.403   0.790 -0.0844  0.2311 -0.2238
  189SOL     OW  753   4.023   3.992   0.707 -0.0012  0.3883  0.1162
  189SOL    HW2  754   4.014   4.083   0.737  0.9862  0.9310 -1.1637
  189SOL    HW3  755   4.091   3.955   0.762 -0.6097  0.3309  0.8379
  189SOL    MW4  756   4.031   3.999   0.718  0.0488  0.4524  0.0426
  190SOL     OW  757   1.946   4.210   0.335 -0.2575 -0.2104  0.0610
  190SOL    HW2  758   1.876   4.191   0.398  0.3023 -0.3978  0.6352
  190SOL    HW3  759   1.979   4.297   0.361  0.3414 -0.5262  0.3780
  190SOL    MW4  760   1.941   4.219   0.347 -0.1046 -0.2768  0.1786
  191SOL     OW  761   0.484   4.022   0.764 -0.1237 -0.2688 -0.2760
  191SOL    HW2  762   0.539   3.960   0.811 -1.1552 -0.8139  0.2229
  191SOL    HW3  763   0.522   4.027   0.676  0.4742 -0.9399 -0.0506
  191SOL    MW4  764   0.496   4.015   0.759 -0.1809 -0.4293 -0.1805
  192SOL     OW  765   0.230   4.387   0.835  0.5996 -0.4572 -0.1256
  192SOL    HW2  766   0.163   4.323   0.860 -0.0397  0.3587  0.2870
  192SOL    HW3  767   0.313   4.343   0.851  0.1665 -1.0032  0.6736
  192SOL    MW4  768   0.232   4.373   0.841  0.4581 -0.4216  0.0343
  193SOL     OW  769   2.440   3.893   0.848 -0.1578 -0.0042  0.6000
  193SOL    HW2  770   2.364   3.913   0.793 -0.4952 -0.2444  0.9773
  193SOL    HW3  771   2.445   3.798   0.848 -1.3422 -0.0871  2.5670
  193SOL    MW4  772   2.431   3.883   0.840 -0.3586 -0.0468  0.9093
  194SOL     OW  773   2.143   1.728   0.357  0.2022  0.4780  0.3627
  194SOL    HW2  774   2.212   1.711   0.421  0.1750  1.9959  0.8292
  194SOL    HW3  775   2.177   1.799   0.303  0.5009 -1.2496 -1.7858
  194SOL    MW4  776   2.157   1.735   0.359  0.2380  0.4503  0.1408
  195SOL     OW  777   3.126   4.444   0.384 -1.2097 -0.2038  0.3609
  195SOL    HW2  778   3.061   4.389   0.427 -0.7679 -1.0649 -0.0665
  195SOL    HW3  779   3.115   4.427   0.291  0.9375 -1.8695  0.3771
  195SOL    MW4  780   3.116   4.435   0.378 -0.8681 -0.5372  0.3067
  196SOL     OW  781   1.115   3.091   0.800 -0.2469  0.1497 -0.0892
  196SOL    HW2  782   1.095   3.002   0.773 -0.6411  0.6453 -1.4534
  196SOL    HW3  783   1.037   3.142   0.777 -0.3504  0.6924  1.4387
  196SOL    MW4  784   1.102   3.086   0.793 -0.3125  0.2867 -0.0676
  197SOL     OW  785   3.664   3.182   0.503  0.3953  0.4781 -0.3640
  197SOL    HW2  786   3.624   3.155   0.586 -0.9518  0.8541 -0.8811
  197SOL    HW3  787   3.627   3.122   0.439 -0.4330  1.7112 -1.0670
  197SOL    MW4  788   3.654   3.170   0.506  0.1083  0.6904 -0.5250
  198SOL     OW  789   1.994   0.406   0.394 -0.5361  0.1847  0.2848
  198SOL    HW2  790   1.933   0.334   0.410  0.0012 -0.4446 -0.4700
  198SOL    HW3  791   1.940   0.477   0.359 -0.8815 -0.2598 -0.0846
  198SOL    MW4  792   1.979   0.406   0.392 -0.5108  0.0431  0.1365
  199SOL     OW  793   4.229   0.535   0.793 -0.2612 -0.2081 -0.1568
  199SOL    HW2  794   4.225   0.540   0.698  0.1583  1.7076 -0.0890
  199SOL    HW3  795   4.231   0.626   0.822  0.1619 -0.7718  1.6622
  199SOL    MW4  796   4.229   0.548   0.785 -0.1500 -0.0297  0.0921
  200SOL     OW  797   2.742   1.178   0.849  0.0708 -0.0042 -0.6150
  200SOL    HW2  798   2.725   1.085   0.835  0.3891  0.2344 -2.7415
  200SOL    HW3  799   2.812   1.199   0.788 -0.5633  1.8262 -0.7420
  200SOL    MW4  800   2.749   1.169   0.839  0.0291  0.2688 -0.9123
  201SOL     OW  801   2.018   3.656   0.453  0.2750  0.0373 -0.2107
  201SOL    HW2  802   2.028   3.641   0.546  0.1842  1.3089  0.0114
  201SOL    HW3  803   2.065   3.738   0.436  1.6677 -0.9985 -1.5714
  201SOL    MW4  804   2.026   3.665   0.463  0.4468  0.0684 -0.3609
  202SOL     OW  805   0.530   0.721   0.405 -0.1828 -0.1070  0.7604
  202SOL    HW2  806   0.452   0.667   0.419 -0.2706  0.3464  2.1673
  202SOL    HW3  807   0.603   0.659   0.411 -0.4381 -0.5452 -0.6343
  202SOL    MW4  808   0.529   0.706   0.408 -0.2281 -0.1050  0.7620
  203SOL     OW  809   3.807   0.004   0.863 -0.4399 -0.1177 -0.1636
  203SOL    HW2  810   3.744   0.058   0.815  1.3863 -0.1247 -2.7126
  203SOL    HW3  811   3.892   0.037   0.834  0.7151 -1.8768  1.1450
  203SOL    MW4  812   3.810   0.016   0.853 -0.0466 -0.3507 -0.3273
  204SOL     OW  813   2.268   1.151   0.875  0.3005  0.5324 -0.2563
  204SOL    HW2  814   2.256   1.059   0.852 -1.4061  0.7585 -0.3204
  204SOL    HW3  815   2.297   1.150   0.966  3.3945 -0.1950 -1.1808
  204SOL    MW4  816   2.270   1.139   0.884  0.4835  0.4662 -0.3868
  205SOL     OW  817   3.602   1.684   0.756  0.4990  0.3964 -0.0456
  205SOL    HW2  818   3.670   1.646   0.812  0.0179  0.8604  0.8615
  205SOL    HW3  819   3.525   1.629   0.770  0.6515 -0.0738 -1.0044
  205SOL    MW4  820   3.601   1.672   0.765  0.4557  0.3956 -0.0525
  206SOL     OW  821   2.069   4.486   0.403  0.2457  0.1736 -0.0492
  206SOL    HW2  822   2.120   4.561   0.433 -0.3569 -0.2682  2.1999
  206SOL    HW3  823   1.989   4.524   0.367 -0.0928  0.6290  1.1513
  206SOL    MW4  824   2.065   4.500   0.402  0.1215  0.1754  0.4060
  207SOL     OW  825   2.652   2.720   0.879 -0.1130 -0.1648  0.0382
  207SOL    HW2  826   2.736   2.736   0.835 -0.4353  1.2951 -0.0675
  207SOL    HW3  827   2.675   2.706   0.971  0.1737  1.1984  0.1848
  207SOL    MW4  828   2.666   2.721   0.885 -0.1177  0.2077  0.0436
  208SOL     OW  829   0.550   0.139   0.491 -0.0506  0.1605 -0.1767
  208SOL    HW2  830   0.535   0.168   0.581 -1.4677 -0.3024 -0.2564
  208SOL    HW3  831   0.475   0.172   0.442  0.1241 -0.5885 -0.9661
  208SOL    MW4  832   0.538   0.148   0.496 -0.2145  0.0006 -0.2914
  209SOL     OW  833   4.173   1.435   0.508 -0.4990 -0.4086 -0.1639
  209SOL    HW2  834   4.239   1.503   0.494  0.0690 -0.7881  0.6648
  209SOL    HW3  835   4.090   1.483   0.512  0.0856  0.4570  2.3303
  209SOL    MW4  836   4.171   1.450   0.506 -0.3469 -0.3445  0.2745
  210SOL     OW  837   1.333   4.296   0.823 -0.4309  0.0087  0.8048
  210SOL    HW2  838   1.247   4.334   0.805  0.0316 -0.1135 -1.9026
  210SOL    HW3  839   1.324   4.204   0.797  0.7786  0.2187 -0.3891
  210SOL    MW4  840   1.321   4.289   0.817 -0.2103  0.0203  0.2901
  211SOL     OW  841   0.425   1.186   0.893  0.0088  0.2410 -0.3081
  211SOL    HW2  842   0.428   1.101   0.850 -0.2431 -0.7393  1.5560
  211SOL    HW3  843   0.351   1.232   0.852  0.5283 -0.1769 -1.7431
  211SOL    MW4  844   0.416   1.181   0.882  0.0441  0.0566 -0.2515
  212SOL     OW  845   1.540   4.456   0.718  0.1532 -0.6137 -0.0517
  212SOL    HW2  846   1.470   4.400   0.751  0.6036 -1.1531 -0.0169
  212SOL    HW3  847   1.529   4.455   0.623  0.1601 -0.7519 -0.0500
  212SOL    MW4  848   1.529   4.449   0.710  0.2135 -0.7031 -0.0469
  213SOL     OW  849   2.424   2.832   0.777  0.0077  0.0521  0.4688
  213SOL    HW2  850   2.344   2.785   0.798 -0.6341  1.2741  0.8248
  213SOL    HW3  851   2.495   2.777   0.811 -0.7611 -0.3192  1.4805
  213SOL    MW4  852   2.423   2.819   0.784 -0.1784  0.1643  0.6492
  214SOL     OW  853   1.126   2.011   0.749 -0.5493 -0.3194 -0.0467
  214SOL    HW2  854   1.120   2.027   0.655 -0.6688 -1.6630 -0.2766
  214SOL    HW3  855   1.132   2.098   0.788 -0.8564  0.2601 -1.2726
  214SOL    MW4  856   1.126   2.025   0.742 -0.6055 -0.4202 -0.2387
  215SOL     OW  857   0.137   3.454   0.359 -0.6140  0.4141 -0.2249
  215SOL    HW2  858   0.185   3.375   0.336 -1.2701 -0.1975  0.4802
  215SOL    HW3  859   0.203   3.512   0.399 -0.0713  0.3547 -1.0384
  215SOL    MW4  860   0.152   3.451   0.362 -0.6290  0.3256 -0.2392
  216SOL     OW  861   3.804   3.854   0.800 -0.0301  0.0383 -0.3444
  216SOL    HW2  862   3.873   3.895   0.748 -0.3645 -0.4143 -1.1594
  216SOL    HW3  863   3.726   3.907   0.781 -0.0925  0.0384 -0.0859
  216SOL    MW4  864   3.803   3.867   0.791 -0.0825 -0.0214 -0.4178
  217SOL     OW  865   4.075   0.361   0.454 -0.0059  0.0150 -0.2208
  217SOL    HW2  866   3.982   0.386   0.458  0.2050  1.0125 -1.2981
  217SOL    HW3  867   4.074   0.266   0.440 -0.8556  0.0061 -0.1264
  217SOL    MW4  868   4.063   0.352   0.453 -0.0902  0.1454 -0.3504
  218SOL     OW  869   4.072   3.402   0.415 -0.3868 -0.3425  0.1353
  218SOL    HW2  870   4.163   3.430   0.411  0.1671 -1.8111  1.6022
  218SOL    HW3  871   4.022   3.483   0.425  0.9396  0.3255  1.6049
  218SOL    MW4  872   4.077   3.416   0.416 -0.1387 -0.4481  0.5227
  219SOL     OW  873   0.842   0.724   0.325  0.1140 -0.4222 -0.1857
  219SOL    HW2  874   0.827   0.632   0.345  1.6631 -1.0936 -1.9657
  219SOL    HW3  875   0.760   0.754   0.288  0.3642 -1.7670 -1.8979
  219SOL    MW4  876   0.829   0.716   0.323  0.3514 -0.6882 -0.6464
  220SOL     OW  877   3.954   3.190   0.549 -0.5600 -0.2782  0.4465
  220SOL    HW2  878   3.865   3.209   0.521  0.3766  1.0328 -1.8767
  220SOL    HW3  879   4.004   3.269   0.525  1.3551 -1.2730  1.0188
  220SOL    MW4  880   3.949   3.203   0.542 -0.1838 -0.2365  0.2155
  221SOL     OW  881   4.481   3.234   0.810  0.0252 -0.4620  0.5522
  221SOL    HW2  882   4.559   3.178   0.804  0.1216 -0.2933  0.2221
  221SOL    HW3  883   4.445   3.235   0.721  0.9611  1.3446  0.1760
  221SOL    MW4  884   4.487   3.227   0.797  0.1614 -0.2014  0.4590
  222SOL     OW  885   1.150   2.028   0.470 -0.1151  0.4454 -0.3397
  222SOL    HW2  886   1.126   1.943   0.433 -1.6052  0.5997  0.2358
  222SOL    HW3  887   1.237   2.047   0.434  0.6412 -1.7513  0.2565
  222SOL    MW4  888   1.159   2.019   0.461 -0.2119  0.1760 -0.1851
  223SOL     OW  889   0.000   4.000   0.781  0.1149  0.2297 -0.1567
  223SOL    HW2  890   0.077   3.952   0.812 -0.2649  0.0047  0.4277
  223SOL    HW3  891   0.007   4.086   0.822 -0.3668 -0.0551  0.5201
  223SOL    MW4  892   0.011   4.005   0.790  0.0012  0.1624  0.0097
  224SOL     OW  893   3.388   0.536   0.842 -0.3941  0.1738 -0.2009
  224SOL    HW2  894   3.305   0.491   0.857 -1.2847  1.3559 -1.4123
  224SOL    HW3  895   3.370   0.627   0.865  0.6964  0.3561 -0.0464
  224SOL    MW4  896   3.374   0.542   0.847 -0.3677  0.3538 -0.3403
  225SOL     OW  897   1.317   0.175   0.480 -0.2895 -0.3128 -0.1902
  225SOL    HW2  898   1.244   0.235   0.466 -0.1459  0.2240  1.2154
  225SOL    HW3  899   1.337   0.183   0.574  0.4447 -1.7406 -0.2065
  225SOL    MW4  900   1.310   0.184   0.491 -0.1737 -0.4304 -0.0069
  226SOL     OW  901   3.567   2.515   0.451 -0.0986  0.5225 -0.1780
  226SOL    HW2  902   3.573   2.506   0.546  0.5426 -0.6202 -0.3177
  226SOL    HW3  903   3.499   2.581   0.437  1.8972  2.9334  1.1378
  226SOL    MW4  904   3.558   2.523   0.461  0.2493  0.6899 -0.0228
  227SOL     OW  905   3.281   2.944   0.481  0.3579  0.2482 -0.3118
  227SOL    HW2  906   3.187   2.931   0.470  0.2879  0.1457  0.3913
  227SOL    HW3  907   3.294   3.038   0.465 -0.2250  0.7472  1.9462
  227SOL    MW4  908   3.271   2.955   0.478  0.2718  0.3005  0.0789
  228SOL     OW  909   1.105   1.352   0.456 -0.6324  0.5814  0.5200
  228SOL    HW2  910   1.116   1.323   0.546  1.1370 -1.3511 -0.2604
  228SOL    HW3  911   1.159   1.431   0.449 -0.0976  0.2577  0.9468
  228SOL    MW4  912   1.113   1.359   0.467 -0.3284  0.2837  0.4733
  229SOL     OW  913   2.689   0.131   0.698 -0.4198 -0.0460 -0.2045
  229SOL    HW2  914   2.651   0.043   0.707  0.2692 -0.2914  0.3003
  229SOL    HW3  915   2.678   0.151   0.605 -1.0636 -0.4494 -0.2192
  229SOL    MW4  916   2.683   0.122   0.687 -0.4138 -0.1316 -0.1398
  230SOL     OW  917   2.017   3.603   0.717  0.2783  0.0726 -0.6236
  230SOL    HW2  918   1.939   3.554   0.745  0.0708 -0.1142 -1.5274
  230SOL    HW3  919   2.008   3.688   0.760 -0.2217 -0.0878 -0.4003
  230SOL    MW4  920   2.005   3.608   0.726  0.1850  0.0268 -0.7134
  231SOL     OW  921   2.553   2.072   0.522  0.2713  0.2879 -0.5312
  231SOL    HW2  922   2.522   2.051   0.610 -1.3659 -0.2785 -1.2066
  231SOL    HW3  923   2.550   1.988   0.475  0.8880  0.6307 -1.1936
  231SOL    MW4  924   2.548   2.058   0.527  0.1366  0.2584 -0.7077
  232SOL     OW  925   0.072   2.655   0.345  0.1143  0.1188  0.5539
  232SOL    HW2  926   0.017   2.616   0.414  0.0249 -0.0745  0.3734
  232SOL    HW3  927   0.012   2.711   0.297 -0.1842 -0.9332 -0.3234
  232SOL    MW4  928   0.057   2.657   0.348  0.0631 -0.0455  0.4143
  233SOL     OW  929   1.094   0.316   0.404 -0.1751  0.5832 -0.5808
  233SOL    HW2  930   1.004   0.289   0.422  0.2535 -0.1302  0.5315
  233SOL    HW3  931   1.094   0.410   0.422 -0.6109  0.5190 -0.2139
  233SOL    MW4  932   1.082   0.325   0.409 -0.1760  0.4806 -0.3857
  234SOL     OW  933   4.214   1.581   0.864 -0.1158  0.2025 -0.4795
  234SOL    HW2  934   4.216   1.574   0.960  0.3149  1.0989 -0.4096
  234SOL    HW3  935   4.203   1.491   0.833  0.7875 -0.2141  0.3848
  234SOL    MW4  936   4.213   1.568   0.873  0.0602  0.2658 -0.3562
  235SOL     OW  937   0.489   2.722   0.380 -0.4483 -0.2379 -0.4506
  235SOL    HW2  938   0.416   2.762   0.428  0.8040  0.8132  0.6064
  235SOL    HW3  939   0.448   2.683   0.303 -2.4911 -1.7938  1.3487
  235SOL    MW4  940   0.474   2.722   0.376 -0.5526 -0.3045 -0.0737
  236SOL     OW  941   2.928   2.802   0.757 -0.5572 -0.2617 -0.3157
  236SOL    HW2  942   3.001   2.743   0.777 -0.6888 -0.5172 -0.5999
  236SOL    HW3  943   2.946   2.833   0.668 -0.4061  0.2468 -0.1100
  236SOL    MW4  944   2.940   2.799   0.748 -0.5546 -0.2283 -0.3260
  237SOL     OW  945   1.532   4.209   0.407 -0.6710 -0.0356  0.3417
  237SOL    HW2  946   1.573   4.155   0.339 -1.4078 -0.0894 -0.0664
  237SOL    HW3  947   1.465   4.153   0.446 -1.3490  0.5265  0.0117
  237SOL    MW4  948   1.528   4.195   0.403 -0.8577  0.0315  0.2443
  238SOL     OW  949   3.980   0.871   0.781 -0.0791  0.0254 -0.0635
  238SOL    HW2  950   4.008   0.858   0.691  1.8798  0.0427  0.5149
  238SOL    HW3  951   3.988   0.965   0.796 -0.8491  0.0856 -0.0114
  238SOL    MW4  952   3.985   0.882   0.771  0.0778  0.0356  0.0196
  239SOL     OW  953   2.989   4.015   0.493 -0.2826  0.0709 -0.4091
  239SOL    HW2  954   3.052   4.003   0.422  1.2181 -0.1727  0.9348
  239SOL    HW3  955   2.973   4.109   0.496 -0.5861  0.0528 -1.2440
  239SOL    MW4  956   2.995   4.026   0.484 -0.1246  0.0364 -0.3419
  240SOL     OW  957   3.492   2.074   0.335 -0.0029  0.0767 -0.0773
  240SOL    HW2  958   3.477   2.071   0.241 -1.9759  0.9323  0.1850
  240SOL    HW3  959   3.407   2.052   0.374  0.8629 -0.5695  1.5037
  240SOL    MW4  960   3.479   2.071   0.328 -0.1490  0.1043  0.1659
  241SOL     OW  961   3.508   2.455   0.751 -0.0486 -0.0607 -0.0156
  241SOL    HW2  962   3.593   2.413   0.766 -0.6599 -1.5544 -0.6568
  241SOL    HW3  963   3.514   2.538   0.798  2.0380  0.1908 -0.6461
  241SOL    MW4  964   3.520   2.461   0.759  0.1460 -0.2246 -0.1834
  242SOL     OW  965   3.352   3.837   0.829  0.1626 -0.5945 -0.5148
  242SOL    HW2  966   3.332   3.849   0.922 -1.3328 -3.2201 -0.4601
  242SOL    HW3  967   3.273   3.864   0.783 -0.2370 -2.2406 -0.8279
  242SOL    MW4  968   3.339   3.842   0.835 -0.0874 -1.1581 -0.5489
  243SOL     OW  969   1.786   2.690   0.839 -0.1134  0.1528 -0.4242
  243SOL    HW2  970   1.867   2.730   0.808 -0.5678  1.9404  0.5950
  243SOL    HW3  971   1.717   2.736   0.791 -0.6326  0.3883  0.5353
  243SOL    MW4  972   1.787   2.701   0.829 -0.2419  0.4198 -0.1631
  244SOL     OW  973   0.176   1.278   0.800  0.1521 -0.2368 -0.1286
  244SOL    HW2  974   0.102   1.227   0.832 -0.6950  0.1927 -1.3571
  244SOL    HW3  975   0.186   1.251   0.708  1.1914  0.0906 -0.1259
  244SOL    MW4  976   0.168   1.268   0.792  0.1775 -0.1369 -0.2904
  245SOL     OW  977   2.772   1.664   0.436  0.8205  0.1900  0.3114
  245SOL    HW2  978   2.728   1.584   0.407 -0.2114  0.5337  0.8552
  245SOL    HW3  979   2.863   1.652   0.412  0.2934 -0.2144 -1.5811
  245SOL    MW4  980   2.778   1.652   0.429  0.6148  0.1820  0.1334
  246SOL     OW  981   0.516   1.344   0.508 -0.6999  0.5605  0.9296
  246SOL    HW2  982   0.555   1.304   0.431 -1.4561 -0.5824  1.1355
  246SOL    HW3  983   0.578   1.325   0.579 -1.9446 -1.9058  1.4088
  246SOL    MW4  984   0.529   1.336   0.507 -0.9639  0.0843  1.0200
  247SOL     OW  985   1.807   4.565   0.330  0.0659  0.0269 -0.3001
  247SOL    HW2  986   1.731   4.552   0.386 -0.4855 -1.2639 -1.3275
  247SOL    HW3  987   1.773   4.560   0.241  1.1822  0.5541 -0.7725
  247SOL    MW4  988   1.793   4.563   0.326  0.1405 -0.0739 -0.4980
  248SOL     OW  989   3.253   2.018   0.482 -0.0869  0.4032  0.1475
  248SOL    HW2  990   3.284   2.044   0.569 -0.7989  0.8344  0.2780
  248SOL    HW3  991   3.174   2.070   0.468  0.5634  1.0775 -1.1716
  248SOL    MW4  992   3.247   2.028   0.491 -0.0951  0.5490 -0.0093
  249SOL     OW  993   1.392   3.188   0.431  0.1501  0.1806 -0.2475
  249SOL    HW2  994   1.373   3.207   0.522 -1.4865  0.6414 -0.6715
  249SOL    HW3  995   1.475   3.233   0.414  0.9601 -0.7100  1.2528
  249SOL    MW4  996   1.400   3.196   0.440  0.0410  0.1239 -0.1055
  250SOL     OW  997   4.441   1.887   0.377  0.0229  0.0307  0.0438
  250SOL    HW2  998   4.523   1.916   0.416 -0.0302 -0.1420  0.2852
  250SOL    HW3  999   4.419   1.806   0.423 -0.3359  0.1327  0.0561
  250SOL    MW4 1000   4.449   1.880   0.388 -0.0315  0.0214  0.0773
  251SOL     OW 1001   0.947   2.200   0.356 -0.5189  0.0627 -0.3625
  251SOL    HW2 1002   1.026   2.164   0.395  0.2146  2.3149  0.3469
  251SOL    HW3 1003   0.877   2.139   0.379  0.7941 -1.2538  0.1254
  251SOL    MW4 1004   0.948   2.187   0.364 -0.2489  0.1862 -0.2045
  252SOL     OW 1005   0.716   1.126   0.455  0.0666  0.6008  0.8195
  252SOL    HW2 1006   0.763   1.205   0.481  0.6545  0.8960 -1.0151
  252SOL    HW3 1007   0.778   1.055   0.471  1.2386  0.9973 -1.6649
  252SOL    MW4 1008   0.731   1.127   0.460  0.2988  0.6920  0.2497
  253SOL     OW 1009   4.030   1.143   0.864 -0.0447 -0.2740  0.2719
  253SOL    HW2 1010   4.097   1.208   0.840 -1.9186  2.5829  2.4694
  253SOL    HW3 1011   4.057   1.113   0.951 -0.5772 -0.5799  0.3300
  253SOL    MW4 1012   4.043   1.148   0.872 -0.3622  0.0626  0.5695
  254SOL     OW 1013   1.418   2.923   0.431 -0.3222 -0.1720 -0.2778
  254SOL    HW2 1014   1.454   2.907   0.518 -0.1495  0.5840 -0.2004
  254SOL    HW3 1015   1.416   3.019   0.424 -2.1368 -0.1956 -0.3477
  254SOL    MW4 1016   1.423   2.934   0.441 -0.5388 -0.0754 -0.2768
  255SOL     OW 1017   2.693   3.376   0.518 -0.0767 -0.7434 -0.6681
  255SOL    HW2 1018   2.626   3.335   0.463 -1.4640  0.0233  0.4111
  255SOL    HW3 1019   2.703   3.317   0.592  0.2165 -0.6995 -0.6713
  255SOL    MW4 1020   2.685   3.363   0.520 -0.2211 -0.6364 -0.5261
  256SOL     OW 1021   0.198   0.755   0.807  0.4154  0.1867  0.2091
  256SOL    HW2 1022   0.210   0.745   0.902  0.8275 -0.2897  0.1112
  256SOL    HW3 1023   0.220   0.669   0.771  0.5562  0.4516 -0.3440
  256SOL    MW4 1024   0.203   0.742   0.815  0.4884  0.1588  0.1232
  257SOL     OW 1025   0.569   2.487   0.480  0.5116 -0.0308 -0.0224
  257SOL    HW2 1026   0.523   2.475   0.563 -0.7442 -0.8572 -0.8200
  257SOL    HW3 1027   0.540   2.574   0.449 -2.0457 -1.3193 -1.4264
  257SOL    MW4 1028   0.559   2.497   0.487  0.0085 -0.3099 -0.3129
  258SOL     OW 1029   0.739   2.022   0.471  0.0339 -0.0769  0.0292
  258SOL    HW2 1030   0.720   2.034   0.564 -0.3329  0.2112 -0.0797
  258SOL    HW3 1031   0.762   1.930   0.462 -2.2145 -0.6800  0.0257
  258SOL    MW4 1032   0.739   2.012   0.482 -0.3111 -0.1185  0.0144
  259SOL     OW 1033   3.471   0.914   0.254 -0.3263  0.0796  0.2679
  259SOL    HW2 1034   3.426   0.853   0.196  0.0193  0.6358 -0.5975
  259SOL    HW3 1035   3.413   0.990   0.258 -0.3156  0.0717  0.5967
  259SOL    MW4 1036   3.458   0.916   0.247 -0.2793  0.1520  0.1971
  260SOL     OW 1037   4.445   1.945   0.856 -0.3136  0.5118  0.3752
  260SOL    HW2 1038   4.528   1.990   0.839 -0.9474  0.9510 -1.7309
  260SOL    HW3 1039   4.459   1.857   0.823 -0.2867  0.2299  1.1379
  260SOL    MW4 1040   4.458   1.940   0.849 -0.3937  0.5325  0.1979
  261SOL     OW 1041   2.456   3.624   0.817 -0.0393 -0.1691  0.7592
  261SOL    HW2 1042   2.373   3.586   0.847  0.3966 -1.8327 -0.0886
  261SOL    HW3 1043   2.522   3.559   0.841  0.7349  0.1122 -0.6030
  261SOL    MW4 1044   2.453   3.611   0.824  0.1204 -0.3515  0.4677
  262SOL     OW 1045   4.229   2.279   0.844  0.1680 -0.0457  0.6828
  262SOL    HW2 1046   4.171   2.322   0.781  0.8590 -1.3912 -0.9243
  262SOL    HW3 1047   4.211   2.185   0.832  2.1771 -0.4525  0.6410
  262SOL    MW4 1048   4.219   2.272   0.834  0.5242 -0.2769  0.4652
  263SOL     OW 1049   0.458   2.696   0.880 -0.2407 -0.2825 -0.2739
  263SOL    HW2 1050   0.468   2.607   0.846 -0.2057 -0.1994 -0.4804
  263SOL    HW3 1051   0.389   2.735   0.825  0.8020  0.3176 -1.1741
  263SOL    MW4 1052   0.450   2.689   0.868 -0.0985 -0.1923 -0.4199
  264SOL     OW 1053   0.014   2.710   0.832 -0.1587 -0.1335 -0.4472
  264SOL    HW2 1054   0.011   2.614   0.826  0.7901 -0.1709 -0.4067
  264SOL    HW3 1055  -0.014   2.730   0.921 -0.2234 -0.3824 -0.4125
  264SOL    MW4 1056   0.010   2.700   0.843 -0.0421 -0.1712 -0.4373
  265SOL     OW 1057   1.108   1.268   0.716  0.1489  0.0539  0.1144
  265SOL    HW2 1058   1.033   1.244   0.772  1.0194 -0.3379  1.1350
  265SOL    HW3 1059   1.184   1.229   0.760  0.9958  0.6933 -0.7624
  265SOL    MW4 1060   1.108   1.260   0.729  0.3755  0.0865  0.1334
  266SOL     OW 1061   1.338   0.871   0.665 -0.1428  0.3934  0.2981
  266SOL    HW2 1062   1.413   0.843   0.717  0.1344 -0.0724 -0.3509
  266SOL    HW3 1063   1.262   0.845   0.717  0.1238 -0.8033  0.1000
  266SOL    MW4 1064   1.338   0.864   0.679 -0.0711  0.1741  0.1863
  267SOL     OW 1065   2.478   3.787   0.399 -0.2700  0.0082  0.0080
  267SOL    HW2 1066   2.553   3.828   0.441  0.6182  0.1561 -1.6846
  267SOL    HW3 1067   2.489   3.693   0.416  0.2274  0.0416 -0.1194
  267SOL    MW4 1068   2.489   3.780   0.407 -0.0872  0.0321 -0.2321
  268SOL     OW 1069   2.476   2.650   0.448 -0.8780  0.0346 -0.2165
  268SOL    HW2 1070   2.536   2.660   0.375 -0.3906 -0.5494  0.0883
  268SOL    HW3 1071   2.426   2.731   0.451 -1.6441 -0.3514 -1.8490
  268SOL    MW4 1072   2.477   2.662   0.439 -0.9147 -0.0934 -0.3917
  269SOL     OW 1073   3.583   3.987   0.746 -0.3363 -0.1659 -0.1780
  269SOL    HW2 1074   3.568   4.080   0.761 -1.5628 -0.1088 -1.6894
  269SOL    HW3 1075   3.508   3.943   0.786 -0.5221 -0.4040 -0.7774
  269SOL    MW4 1076   3.571   3.993   0.753 -0.5226 -0.1898 -0.4565
  270SOL     OW 1077   2.435   2.108   0.042 -0.4047  0.2702  0.2990
  270SOL    HW2 1078   2.424   2.073  -0.046  1.0654 -1.6816  0.8451
  270SOL    HW3 1079   2.402   2.040   0.099 -1.3011  1.5040  1.2741
  270SOL    MW4 1080   2.429   2.095   0.038 -0.3290  0.1755  0.4997
  271SOL     OW 1081   4.225   0.787   0.880 -0.3041  0.3930 -0.0315
  271SOL    HW2 1082   4.286   0.827   0.818 -0.2527  0.6242  0.1697
  271SOL    HW3 1083   4.141   0.829   0.862 -0.3574  0.2373 -0.1537
  271SOL    MW4 1084   4.222   0.798   0.869 -0.3044  0.4029 -0.0211
  272SOL     OW 1085   0.020   0.131   0.729 -0.1949 -0.1963 -0.3112
  272SOL    HW2 1086  -0.013   0.220   0.742 -0.1045  0.1119 -2.0609
  272SOL    HW3 1087   0.050   0.129   0.638  0.0438 -1.9426 -0.2218
  272SOL    MW4 1088   0.019   0.142   0.718 -0.1515 -0.3861 -0.5303
  273SOL     OW 1089   1.576   3.863   0.819  0.5941 -0.1893 -0.5152
  273SOL    HW2 1090   1.650   3.894   0.767  1.0156 -1.3205 -0.5996
  273SOL    HW3 1091   1.568   3.770   0.797  0.6029 -0.6215  1.2592
  273SOL    MW4 1092   1.584   3.854   0.809  0.6508 -0.3956 -0.2922
  274SOL     OW 1093   1.571   3.614   0.469 -0.1082  0.1574  0.0428
  274SOL    HW2 1094   1.639   3.679   0.453  1.1231 -1.1072 -0.0360
  274SOL    HW3 1095   1.492   3.651   0.429  1.2683  0.2389 -2.7497
  274SOL    MW4 1096   1.570   3.627   0.461  0.2359  0.0013 -0.3360
  275SOL     OW 1097   0.308   2.567   0.201  0.4276 -0.7138 -0.0255
  275SOL    HW2 1098   0.325   2.476   0.224 -1.2999 -1.1176 -0.2645
  275SOL    HW3 1099   0.229   2.589   0.250  0.9997  0.7551  0.2572
  275SOL    MW4 1100   0.300   2.558   0.210  0.2751 -0.5733 -0.0197
  276SOL     OW 1101   0.628   0.739   1.169 -0.2752  0.3581 -0.1558
  276SOL    HW2 1102   0.558   0.797   1.198 -0.2950 -0.4762  1.5206
  276SOL    HW3 1103   0.634   0.755   1.074 -1.0422  2.2368  0.0793
  276SOL    MW4 1104   0.619   0.749   1.160 -0.3790  0.4959  0.0964
  277SOL     OW 1105   0.916   0.933   0.496 -0.1161 -0.1381 -0.1957
  277SOL    HW2 1106   0.991   0.980   0.462  0.5014  0.0184  1.3373
  277SOL    HW3 1107   0.900   0.862   0.433  1.6633 -0.5207 -0.2320
  277SOL    MW4 1108   0.924   0.930   0.483  0.2002 -0.1679  0.0018
  278SOL     OW 1109   0.146   1.556   0.467 -0.0541  0.3777  0.3095
  278SOL    HW2 1110   0.198   1.595   0.538 -2.8218  1.2092  1.9662
  278SOL    HW3 1111   0.170   1.463   0.468  1.7319  0.8184  0.7111
  278SOL    MW4 1112   0.156   1.549   0.477 -0.1836  0.5456  0.5811
  279SOL     OW 1113   3.366   0.813   0.877 -0.3743 -0.0472 -0.1066
  279SOL    HW2 1114   3.412   0.830   0.795 -0.8501  1.1263 -0.1378
  279SOL    HW3 1115   3.282   0.857   0.867 -0.0116  1.0219  1.4268
  279SOL    MW4 1116   3.361   0.821   0.865 -0.3892  0.2487  0.0916
  280SOL     OW 1117   3.594   1.931   0.875 -0.0642 -0.2748 -0.4297
  280SOL    HW2 1118   3.635   2.002   0.826  0.1957 -1.5158 -2.0375
  280SOL    HW3 1119   3.608   1.853   0.821 -0.7496 -1.4705  1.0891
  280SOL    MW4 1120   3.601   1.930   0.861 -0.1204 -0.5963 -0.4415
  281SOL     OW 1121   4.090   0.793   0.540 -0.4966 -0.2689 -0.7821
  281SOL    HW2 1122   4.140   0.713   0.525  0.5443 -0.0919  1.6021
  281SOL    HW3 1123   4.140   0.861   0.495  1.6738 -0.0333  1.8588
  281SOL    MW4 1124   4.103   0.792   0.532 -0.0729 -0.2145 -0.1191
  282SOL     OW 1125   0.315   3.208   0.320 -0.1455  0.2205  0.2005
  282SOL    HW2 1126   0.232   3.170   0.347  0.3411 -0.6188  0.5423
  282SOL    HW3 1127   0.343   3.153   0.246 -0.7564  1.5926 -1.0619
  282SOL    MW4 1128   0.308   3.195   0.313 -0.1619  0.2908  0.0790
  283SOL     OW 1129   3.774   2.798   0.473  0.4299 -0.0994  0.2036
  283SOL    HW2 1130   3.851   2.845   0.440 -0.6170  0.9140 -0.8572
  283SOL    HW3 1131   3.772   2.718   0.421 -0.0776  0.5694 -0.8240
  283SOL    MW4 1132   3.784   2.794   0.461  0.2248  0.1225 -0.0719
  284SOL     OW 1133   0.425   1.854   0.872  0.8200  0.1245 -0.2993
  284SOL    HW2 1134   0.422   1.888   0.962 -0.7050 -0.1953 -0.2190
  284SOL    HW3 1135   0.489   1.910   0.828  0.6291  1.1132  0.6484
  284SOL    MW4 1136   0.433   1.866   0.878  0.5936  0.2128 -0.1637
  285SOL     OW 1137   1.828   3.184   0.455  0.1329  0.1550  0.1602
  285SOL    HW2 1138   1.891   3.252   0.433  1.0070 -0.3482  0.9958
  285SOL    HW3 1139   1.744   3.216   0.424  0.7422  1.0401 -0.5806
  285SOL    MW4 1140   1.825   3.197   0.448  0.3286  0.2054  0.1727
  286SOL     OW 1141   0.872   2.455   0.484 -0.3871  0.3986  0.2405
  286SOL    HW2 1142   0.890   2.378   0.430 -1.4001  1.7855 -2.1443
  286SOL    HW3 1143   0.777   2.465   0.480 -0.2642  1.6965  0.6090
  286SOL    MW4 1144   0.862   2.446   0.476 -0.5045  0.7528 -0.0255
  287SOL     OW 1145   4.348   2.297   0.153 -0.2400  0.5150  0.2549
  287SOL    HW2 1146   4.409   2.224   0.161 -1.6842 -0.6186  1.1209
  287SOL    HW3 1147   4.403   2.373   0.134  1.2268 -0.8765 -1.1442
  287SOL    MW4 1148   4.363   2.298   0.151 -0.2370  0.1819  0.1846
  288SOL     OW 1149   0.468   2.449   0.751 -0.1098 -0.0003  0.6238
  288SOL    HW2 1150   0.547   2.399   0.770  0.4396  0.0006 -1.5267
  288SOL    HW3 1151   0.396   2.391   0.777  0.5692 -0.3542  1.7583
  288SOL    MW4 1152   0.469   2.435   0.757  0.0523 -0.0469  0.4898
  289SOL     OW 1153   3.780   2.349   0.793  0.3696 -0.1988  0.0092
  289SOL    HW2 1154   3.866   2.375   0.758  0.3745 -0.6533 -0.3124
  289SOL    HW3 1155   3.794   2.347   0.888  0.4960  0.5197  0.0103
  289SOL    MW4 1156   3.793   2.352   0.801  0.3869 -0.1640 -0.0331
  290SOL     OW 1157   2.634   0.914   0.495 -0.0006  0.4345  0.1412
  290SOL    HW2 1158   2.565   0.902   0.429  1.5163 -1.5540 -1.1535
  290SOL    HW3 1159   2.678   0.994   0.470 -0.1610  0.2969 -0.5943
  290SOL    MW4 1160   2.630   0.923   0.483  0.1784  0.1540 -0.1267
  291SOL     OW 1161   2.603   4.535   0.734  0.2727  0.7132 -0.3234
  291SOL    HW2 1162   2.529   4.558   0.791  0.1285  0.9166 -0.5905
  291SOL    HW3 1163   2.632   4.449   0.765 -0.7387  0.1636 -0.8940
  291SOL    MW4 1164   2.597   4.527   0.746  0.1202  0.6676 -0.4339
  292SOL     OW 1165   1.689   2.473   0.497  0.0430  0.2954 -0.4071
  292SOL    HW2 1166   1.606   2.445   0.458  0.3058 -0.1304 -0.6696
  292SOL    HW3 1167   1.702   2.562   0.464  0.2191 -0.0286 -1.2323
  292SOL    MW4 1168   1.680   2.481   0.487  0.1009  0.1965 -0.5506
  293SOL     OW 1169   2.429   1.403   0.526  0.2821  0.5796 -0.2314
  293SOL    HW2 1170   2.364   1.334   0.512 -1.1592  2.0758 -0.9572
  293SOL    HW3 1171   2.461   1.387   0.615  0.7007 -1.6146 -0.7302
  293SOL    MW4 1172   2.425   1.391   0.536  0.1472  0.4875 -0.3930
  294SOL     OW 1173   1.914   1.850   0.457  0.0338 -0.1652 -0.3058
  294SOL    HW2 1174   1.994   1.802   0.433  0.5976  0.7205 -0.2230
  294SOL    HW3 1175   1.946   1.929   0.500 -0.9192 -0.2855  0.6273
  294SOL    MW4 1176   1.929   1.854   0.459 -0.0175 -0.0642 -0.1717
  295SOL     OW 1177   2.552   2.321   0.206 -0.3331 -0.0322 -0.2470
  295SOL    HW2 1178   2.622   2.286   0.261 -0.1638  0.4415 -0.1515
  295SOL    HW3 1179   2.527   2.249   0.149 -0.4998 -0.5288  0.4457
  295SOL    MW4 1180   2.558   2.307   0.206 -0.3328 -0.0352 -0.1430
  296SOL     OW 1181   0.252   0.011   0.829 -0.0876 -0.5503 -0.1130
  296SOL    HW2 1182   0.248  -0.082   0.806 -1.0728 -0.6195  0.2934
  296SOL    HW3 1183   0.167   0.046   0.801  0.5279  0.3668 -0.8482
  296SOL    MW4 1184   0.240   0.003   0.822 -0.1364 -0.4384 -0.1564
  297SOL     OW 1185   1.354   3.211   0.696 -0.1246  0.0295 -0.1018
  297SOL    HW2 1186   1.277   3.164   0.729  0.6540 -0.5703  0.8769
  297SOL    HW3 1187   1.429   3.162   0.730  0.6951  0.8532 -0.6918
  297SOL    MW4 1188   1.354   3.198   0.705  0.0863  0.0590 -0.0505
  298SOL     OW 1189   0.964   3.140   0.457 -0.0338 -0.1038 -0.2804
  298SOL    HW2 1190   1.016   3.061   0.465  1.1161  0.6631 -0.0308
  298SOL    HW3 1191   0.897   3.119   0.392  1.3804 -0.6721 -1.5474
  298SOL    MW4 1192   0.962   3.127   0.450  0.3045 -0.0776 -0.4146
  299SOL     OW 1193   1.118   0.001   0.818 -0.0959  0.1590  0.6730
  299SOL    HW2 1194   1.044   0.041   0.774 -0.3183 -1.3748 -0.3812
  299SOL    HW3 1195   1.188   0.065   0.810 -0.6884  0.7007 -0.2422
  299SOL    MW4 1196   1.118   0.014   0.811 -0.2034  0.0281  0.4132
  300SOL     OW 1197   0.845   0.409   0.834 -0.5284  0.0699 -0.2248
  300SOL    HW2 1198   0.929   0.453   0.821 -0.3142 -0.3078 -0.1266
  300SOL    HW3 1199   0.843   0.388   0.927  0.6909 -2.7897 -0.7905
  300SOL    MW4 1200   0.855   0.412   0.845 -0.3392 -0.3572 -0.2864
  301SOL     OW 1201   0.328   1.660   0.275 -0.2596  0.2170 -0.0284
  301SOL    HW2 1202   0.258   1.619   0.326 -1.1386 -0.2310 -1.5772
  301SOL    HW3 1203   0.298   1.750   0.260 -0.6324 -0.0520 -0.9187
  301SOL    MW4 1204   0.315   1.667   0.280 -0.4248  0.1224 -0.3502
  302SOL     OW 1205   1.087   0.522   0.759  0.1884 -0.3200 -0.0669
  302SOL    HW2 1206   1.070   0.544   0.667 -0.2653 -2.4883 -0.5421
  302SOL    HW3 1207   1.173   0.479   0.757  0.3358 -0.0559  0.5847
  302SOL    MW4 1208   1.096   0.519   0.746  0.1480 -0.5712 -0.0436
  303SOL     OW 1209   3.256   1.745   0.469  0.2566  0.1967  0.5158
  303SOL    HW2 1210   3.244   1.840   0.470  0.7457  0.2534  1.5782
  303SOL    HW3 1211   3.254   1.720   0.562  1.1134 -0.7104  0.2901
  303SOL    MW4 1212   3.254   1.754   0.482  0.4342  0.0845  0.6262
  304SOL     OW 1213   2.696   2.515   0.534  0.1466 -0.4131  0.1850
  304SOL    HW2 1214   2.699   2.429   0.493 -0.1932  0.1607 -1.0734
  304SOL    HW3 1215   2.615   2.554   0.501  0.4095  0.4602  0.5729
  304SOL    MW4 1216   2.686   2.509   0.524  0.1365 -0.2222  0.0701
  305SOL     OW 1217   1.146   3.588   0.464  0.2965 -0.3114  0.0443
  305SOL    HW2 1218   1.053   3.603   0.449  0.4976 -0.0216 -0.9682
  305SOL    HW3 1219   1.161   3.497   0.438  0.5201 -0.0031 -0.9267
  305SOL    MW4 1220   1.136   3.578   0.459  0.3525 -0.2325 -0.2174
  306SOL     OW 1221   1.104   1.537   0.806  0.1092  0.0997 -0.2015
  306SOL    HW2 1222   1.106   1.451   0.765 -1.5314  0.0026 -0.1212
  306SOL    HW3 1223   1.036   1.585   0.758 -0.3904  0.6705  1.0618
  306SOL    MW4 1224   1.095   1.532   0.794 -0.1731  0.1622 -0.0242
  307SOL     OW 1225   3.830   3.606   0.704  0.5664 -0.1736  0.1409
  307SOL    HW2 1226   3.820   3.689   0.750  0.9776 -0.3349  0.5140
  307SOL    HW3 1227   3.910   3.567   0.739 -0.9646 -1.9088  1.7941
  307SOL    MW4 1228   3.839   3.612   0.715  0.4186 -0.4238  0.4082
  308SOL     OW 1229   0.867   1.921   0.829 -0.4746 -0.3654  0.2840
  308SOL    HW2 1230   0.954   1.954   0.806 -0.4229 -0.1572  0.7801
  308SOL    HW3 1231   0.869   1.912   0.924 -0.6711 -1.2736  0.2090
  308SOL    MW4 1232   0.879   1.924   0.838 -0.4937 -0.4578  0.3395
  309SOL     OW 1233   1.815   0.143   0.701  0.2961  0.4225 -0.0680
  309SOL    HW2 1234   1.745   0.088   0.737  0.7981 -0.3171 -0.2355
  309SOL    HW3 1235   1.896   0.105   0.734  0.6334  1.2884  0.1371
  309SOL    MW4 1236   1.816   0.131   0.710  0.4069  0.4392 -0.0630
  310SOL     OW 1237   1.143   2.265   0.842 -0.1662  0.0978  0.2856
  310SOL    HW2 1238   1.151   2.288   0.935  1.7163 -1.2075  0.4727
  310SOL    HW3 1239   1.064   2.310   0.813 -1.8153 -0.9732  2.9797
  310SOL    MW4 1240   1.134   2.274   0.851 -0.1354 -0.2157  0.6657
  311SOL     OW 1241   3.435   1.551   0.359  0.2860  0.3834 -0.1481
  311SOL    HW2 1242   3.519   1.594   0.343  0.2879  0.3972 -0.1027
  311SOL    HW3 1243   3.378   1.621   0.389 -0.3767  0.7910 -2.2849
  311SOL    MW4 1244   3.439   1.566   0.361  0.1988  0.4390 -0.4241
  312SOL     OW 1245   1.324   2.706   0.809  0.1428 -0.0335  0.1467
  312SOL    HW2 1246   1.326   2.705   0.904 -0.0844  0.7580  0.1652
  312SOL    HW3 1247   1.334   2.615   0.783  2.5952  0.0037  0.8728
  312SOL    MW4 1248   1.326   2.694   0.818  0.4364  0.0758  0.2449
  313SOL     OW 1249   0.784   1.728   0.454 -0.1474 -0.4217 -0.8300
  313SOL    HW2 1250   0.821   1.708   0.540 -0.3262  1.8666 -0.1673
  313SOL    HW3 1251   0.695   1.691   0.457 -0.2191 -0.1961  0.0520
  313SOL    MW4 1252   0.777   1.721   0.466 -0.1804 -0.0900 -0.6262
  314SOL     OW 1253   3.428   4.126   0.402 -0.0785 -0.4993 -0.2542
  314SOL    HW2 1254   3.352   4.070   0.387 -0.4462 -0.2436  0.6496
  314SOL    HW3 1255   3.500   4.066   0.418 -0.7114 -0.7110  1.8886
  314SOL    MW4 1256   3.428   4.111   0.402 -0.2105 -0.4935  0.1478
  315SOL     OW 1257   1.357   3.759   0.369 -0.5752  0.2050  0.4153
  315SOL    HW2 1258   1.287   3.698   0.389 -0.0078 -0.3533  0.7204
  315SOL    HW3 1259   1.362   3.760   0.274 -0.3907 -0.4534  0.4160
  315SOL    MW4 1260   1.349   3.751   0.359 -0.4760  0.0445  0.4556
  316SOL     OW 1261   1.107   3.652   0.743 -0.2175  0.4451  0.1945
  316SOL    HW2 1262   1.124   3.634   0.651  0.0075  2.0474 -0.0981
  316SOL    HW3 1263   1.017   3.622   0.758 -0.5544  0.9565 -0.7680
  316SOL    MW4 1264   1.097   3.646   0.733 -0.2323  0.7240  0.0289
  317SOL     OW 1265   3.079   0.837   0.319 -0.3883  0.0851 -0.1712
  317SOL    HW2 1266   3.137   0.780   0.268 -0.1094  0.0188  0.2277
  317SOL    HW3 1267   3.131   0.864   0.394 -0.0333  2.0169 -1.0744
  317SOL    MW4 1268   3.093   0.833   0.322 -0.3047  0.3313 -0.2377
  318SOL     OW 1269   4.231   2.816   0.480 -0.1993 -0.1579  0.3623
  318SOL    HW2 1270   4.195   2.727   0.477  2.4765 -1.3423  1.7351
  318SOL    HW3 1271   4.256   2.828   0.572  1.1279  1.3364 -0.1836
  318SOL    MW4 1272   4.229   2.806   0.492  0.3289 -0.1170  0.4714
  319SOL     OW 1273   0.886   4.221   0.841  0.7792  0.3656  0.4645
  319SOL    HW2 1274   0.970   4.265   0.839  0.9053  0.1192  0.3606
  319SOL    HW3 1275   0.822   4.290   0.826  0.9322  0.6364  1.0831
  319SOL    MW4 1276   0.888   4.236   0.839  0.8160  0.3688  0.5324
  320SOL     OW 1277   1.127   0.794   0.819 -0.4097  0.0184  0.0814
  320SOL    HW2 1278   1.113   0.700   0.811 -2.8030  0.4111 -0.9615
  320SOL    HW3 1279   1.129   0.811   0.913  0.2236 -1.0840  0.2701
  320SOL    MW4 1280   1.125   0.784   0.830 -0.6419 -0.0752 -0.0313
  321SOL     OW 1281   1.096   4.402   0.800 -0.2953 -0.0258  0.3359
  321SOL    HW2 1282   1.087   4.404   0.705 -0.2975  0.1186  0.3389
  321SOL    HW3 1283   1.116   4.492   0.824  0.9035 -0.2954  0.3552
  321SOL    MW4 1284   1.097   4.414   0.791 -0.1374 -0.0423  0.3388
  322SOL     OW 1285   2.334   2.411   0.350  0.8663  0.0427  0.3569
  322SOL    HW2 1286   2.388   2.400   0.272 -1.2654  1.6210 -1.4295
  322SOL    HW3 1287   2.382   2.475   0.403  0.7935  1.4639 -1.2251
  322SOL    MW4 1288   2.347   2.418   0.346  0.5754  0.4384 -0.0875
  323SOL     OW 1289   0.888   3.481   0.823 -0.0933  0.0899 -0.0943
  323SOL    HW2 1290   0.797   3.507   0.804 -0.8304 -1.4941  1.1887
  323SOL    HW3 1291   0.895   3.393   0.788  0.7769 -0.0350  0.3852
  323SOL    MW4 1292   0.877   3.473   0.816 -0.0757 -0.1356  0.1382
  324SOL     OW 1293   1.567   0.034   0.823  0.4476  0.0269 -0.1021
  324SOL    HW2 1294   1.571   0.014   0.916  0.3441 -0.5519 -0.2195
  324SOL    HW3 1295   1.538  -0.047   0.782 -1.8037  0.9413 -0.4051
  324SOL    MW4 1296   1.564   0.021   0.830  0.1369  0.0712 -0.1575
  325SOL     OW 1297   1.340   0.429   0.855 -0.2350 -0.2486  0.3864
  325SOL    HW2 1298   1.421   0.473   0.830 -1.1883  1.2390 -0.1446
  325SOL    HW3 1299   1.346   0.421   0.950 -0.3246  1.6494  0.5840
  325SOL    MW4 1300   1.352   0.434   0.864 -0.3726  0.1981  0.3424
  326SOL     OW 1301   3.008   2.869   0.499 -0.2293 -0.0151  0.2303
  326SOL    HW2 1302   2.976   2.796   0.445 -0.0192 -0.9334  1.3216
  326SOL    HW3 1303   2.951   2.942   0.477 -0.8164 -0.6685 -0.4555
  326SOL    MW4 1304   2.996   2.869   0.489 -0.2791 -0.2225  0.2838
  327SOL     OW 1305   2.317   1.910   0.245  0.4386 -0.0217  0.1707
  327SOL    HW2 1306   2.308   1.985   0.303 -1.4621  1.2879 -1.7221
  327SOL    HW3 1307   2.395   1.864   0.276  0.9205  2.0333  2.1291
  327SOL    MW4 1308   2.326   1.914   0.257  0.2514  0.4222  0.1794
  328SOL     OW 1309   4.428   1.701   0.739  0.8198 -0.3183 -0.3636
  328SOL    HW2 1310   4.349   1.657   0.771  0.3263  0.3168 -0.7090
  328SOL    HW3 1311   4.500   1.653   0.780  0.2623 -0.9973 -0.1695
  328SOL    MW4 1312   4.427   1.689   0.749  0.6812 -0.3241 -0.3836
  329SOL     OW 1313   4.049   3.482   0.815 -0.4410  0.2672  0.4075
  329SOL    HW2 1314   4.032   3.493   0.909 -0.1429  0.8686  0.3901
  329SOL    HW3 1315   4.131   3.528   0.800 -0.0723 -0.5097  0.0002
  329SOL    MW4 1316   4.057   3.489   0.825 -0.3530  0.2441  0.3514
  330SOL     OW 1317   0.892   3.688   0.391 -0.4053 -0.0864 -0.1167
  330SOL    HW2 1318   0.807   3.667   0.431 -0.3228 -1.0572 -0.4314
  330SOL    HW3 1319   0.871   3.704   0.299 -0.3406  0.3449 -0.0561
  330SOL    MW4 1320   0.878   3.687   0.384 -0.3859 -0.1575 -0.1503
  331SOL     OW 1321   0.542   3.287   0.457  0.6310 -0.0998 -0.3639
  331SOL    HW2 1322   0.462   3.259   0.412  0.0526  1.3770 -0.2813
  331SOL    HW3 1323   0.530   3.256   0.547  0.4269 -0.4191 -0.5013
  331SOL    MW4 1324   0.530   3.279   0.463  0.5278  0.0529 -0.3711
  332SOL     OW 1325   2.463   3.530   0.547 -0.3104 -0.0341  0.3059
  332SOL    HW2 1326   2.449   3.563   0.636 -0.1504 -1.3469  0.8209
  332SOL    HW3 1327   2.535   3.467   0.556  1.3640  1.5854 -1.1490
  332SOL    MW4 1328   2.471   3.526   0.560 -0.0684  0.0064  0.1819
  333SOL     OW 1329   1.573   0.803   0.831 -0.0767 -0.3045 -0.1577
  333SOL    HW2 1330   1.584   0.712   0.805 -0.9927  0.0735 -1.9198
  333SOL    HW3 1331   1.644   0.849   0.787 -0.5091  0.0644 -0.4676
  333SOL    MW4 1332   1.584   0.797   0.822 -0.2546 -0.2060 -0.4310
  334SOL     OW 1333   2.008   3.849   0.828  0.3746  0.0482 -1.0447
  334SOL    HW2 1334   2.092   3.886   0.800 -0.1054  0.9498 -1.3139
  334SOL    HW3 1335   2.011   3.852   0.924 -0.0042  1.6013 -1.0640
  334SOL    MW4 1336   2.020   3.855   0.837  0.2613  0.3721 -1.0828
  335SOL     OW 1337   1.947   2.933   0.392  0.2528  0.0981 -0.2004
  335SOL    HW2 1338   1.877   2.868   0.396 -0.1695  0.6058  1.0194
  335SOL    HW3 1339   1.908   3.012   0.430  1.4738  0.4083  0.4305
  335SOL    MW4 1340   1.933   2.935   0.398  0.3582  0.2060  0.0438
  336SOL     OW 1341   0.709   4.666   0.895  0.0560  0.4169 -0.4124
  336SOL    HW2 1342   0.675   4.651   0.983 -0.7003 -0.8542 -0.8958
  336SOL    HW3 1343   0.721   4.578   0.859 -0.1705  0.9268 -1.7729
  336SOL    MW4 1344   0.706   4.652   0.902 -0.0737  0.3165 -0.6557
  337SOL     OW 1345   2.010   2.807   0.742 -0.0730  0.0270 -0.0781
  337SOL    HW2 1346   2.027   2.807   0.648  0.7973 -0.8807  0.0703
  337SOL    HW3 1347   2.077   2.750   0.779  0.0449  0.9608  1.1889
  337SOL    MW4 1348   2.021   2.799   0.734  0.0574  0.0305  0.1086
  338SOL     OW 1349   3.159   0.116   0.766 -0.4991  0.1069  0.1613
  338SOL    HW2 1350   3.164   0.205   0.802 -0.4805  0.3561 -0.4661
  338SOL    HW3 1351   3.244   0.077   0.788 -0.0953  0.6012 -0.5065
  338SOL    MW4 1352   3.171   0.122   0.774 -0.4433  0.2050 -0.0096
  339SOL     OW 1353   1.810   3.473   0.827 -0.0618  0.0630  0.5358
  339SOL    HW2 1354   1.810   3.471   0.923 -0.4806  0.9926  0.5642
  339SOL    HW3 1355   1.722   3.505   0.804 -0.0323 -0.3534 -0.1639
  339SOL    MW4 1356   1.798   3.477   0.837 -0.1131  0.1307  0.4473
  340SOL     OW 1357   3.192   0.327   0.453 -0.4209 -0.2156  0.0292
  340SOL    HW2 1358   3.197   0.232   0.438 -1.7115 -0.4950  1.2075
  340SOL    HW3 1359   3.098   0.345   0.457 -0.1926  0.7040  2.1497
  340SOL    MW4 1360   3.180   0.317   0.452 -0.5610 -0.1311  0.4644
  341SOL     OW 1361   3.123   4.251   0.859  0.5484 -0.1189 -0.0041
  341SOL    HW2 1362   3.061   4.314   0.822  0.5743 -0.7846 -1.2379
  341SOL    HW3 1363   3.208   4.277   0.823  0.6889 -0.3212  0.1800
  341SOL    MW4 1364   3.126   4.262   0.849  0.5704 -0.2334 -0.1426
  342SOL     OW 1365   3.991   2.956   0.406 -0.2093  0.2960 -0.1810
  342SOL    HW2 1366   4.071   2.926   0.448 -0.0654  1.3138  0.2777
  342SOL    HW3 1367   3.969   3.038   0.451 -1.4258  0.0953 -0.3965
  342SOL    MW4 1368   3.999   2.963   0.417 -0.3508  0.4038 -0.1489
  343SOL     OW 1369   1.542   1.491   0.327  0.0648 -0.2027  0.1320
  343SOL    HW2 1370   1.549   1.500   0.232 -1.1530 -0.7436 -0.0274
  343SOL    HW3 1371   1.610   1.548   0.362  0.2279  0.3489 -1.0572
  343SOL    MW4 1372   1.551   1.500   0.319 -0.0743 -0.2013 -0.0459
  344SOL     OW 1373   1.109   3.885   0.894  0.2105 -0.7756  0.2051
  344SOL    HW2 1374   1.120   3.874   0.989 -1.2136 -0.2023  0.4405
  344SOL    HW3 1375   1.118   3.796   0.859 -1.6336 -1.3499  1.1230
  344SOL    MW4 1376   1.112   3.872   0.902 -0.2207 -0.7758  0.3573
  345SOL     OW 1377   1.426   2.667   0.315 -0.0528  0.1640  0.5331
  345SOL    HW2 1378   1.402   2.748   0.360  0.8757 -0.3331  1.9437
  345SOL    HW3 1379   1.345   2.638   0.274 -0.4141  1.7597  0.0686
  345SOL    MW4 1380   1.412   2.674   0.315  0.0221  0.3089  0.6579
  346SOL     OW 1381   0.651   3.840   0.879  0.0502  0.3901 -0.1069
  346SOL    HW2 1382   0.735   3.868   0.843 -0.3636  1.5275 -0.2159
  346SOL    HW3 1383   0.635   3.754   0.839  2.1424 -0.7927  1.5174
  346SOL    MW4 1384   0.660   3.832   0.869  0.2717  0.3841  0.0930
  347SOL     OW 1385   2.441   2.021   0.777 -0.1632 -0.5064 -0.1960
  347SOL    HW2 1386   2.523   1.974   0.795 -0.5164 -0.4476  1.6166
  347SOL    HW3 1387   2.456   2.109   0.810 -0.3439  0.0254 -1.4867
  347SOL    MW4 1388   2.454   2.027   0.784 -0.2336 -0.4285 -0.1272
  348SOL     OW 1389   0.864   1.667   0.706 -0.3379  0.0727  0.2357
  348SOL    HW2 1390   0.778   1.632   0.729 -0.8396  0.8243 -0.4516
  348SOL    HW3 1391   0.865   1.755   0.746  0.1269  0.0532  0.2715
  348SOL    MW4 1392   0.853   1.674   0.715 -0.3428  0.1693  0.1498
  349SOL     OW 1393   2.213   4.131   0.323 -0.1057  0.0984 -0.3582
  349SOL    HW2 1394   2.121   4.157   0.332  0.3435  1.7895 -0.6021
  349SOL    HW3 1395   2.263   4.210   0.342  1.2829 -0.5165 -1.3328
  349SOL    MW4 1396   2.207   4.145   0.327  0.1368  0.2404 -0.5189
  350SOL     OW 1397   1.913   0.918   0.444 -0.0856 -0.0413  0.1369
  350SOL    HW2 1398   1.873   0.984   0.386 -0.4237 -0.0695  0.3371
  350SOL    HW3 1399   2.001   0.951   0.460 -0.9049  1.4087  1.8557
  350SOL    MW4 1400   1.919   0.931   0.438 -0.2383  0.1463  0.3901
  351SOL     OW 1401   0.020   3.503   0.861  0.1838  0.1612  0.2498
  351SOL    HW2 1402   0.018   3.412   0.833  1.3084  0.0592  0.4515
  351SOL    HW3 1403  -0.056   3.544   0.820 -0.7222 -1.0318  0.7392
  351SOL    MW4 1404   0.010   3.497   0.852  0.2126 -0.0096  0.3410
  352SOL     OW 1405   1.857   1.138   0.884 -0.2811  0.1761  0.0325
  352SOL    HW2 1406   1.771   1.171   0.859 -0.2353 -0.2377 -0.6954
  352SOL    HW3 1407   1.919   1.195   0.839 -0.1683  0.5622  0.6692
  352SOL    MW4 1408   1.854   1.150   0.875 -0.2602  0.1725  0.0205
  353SOL     OW 1409   2.960   1.503   0.857  0.0485 -0.3823 -0.3801
  353SOL    HW2 1410   2.877   1.546   0.837 -0.6092 -1.9382 -1.0119
  353SOL    HW3 1411   3.025   1.551   0.804 -0.5416  0.4069 -0.3932
  353SOL    MW4 1412   2.958   1.515   0.847 -0.1161 -0.4835 -0.4651
  354SOL     OW 1413   0.442   0.931   0.779  0.1410  0.0499  0.0167
  354SOL    HW2 1414   0.458   0.951   0.686 -0.2404 -0.2884 -0.1214
  354SOL    HW3 1415   0.356   0.889   0.780  0.1280  0.0918  0.5308
  354SOL    MW4 1416   0.433   0.928   0.767  0.0890  0.0108  0.0663
  355SOL     OW 1417   0.079   0.150   0.439 -0.3500 -0.3410 -0.6776
  355SOL    HW2 1418   0.048   0.062   0.457  0.4385 -0.5793 -0.4777
  355SOL    HW3 1419  -0.000   0.199   0.416 -0.8658 -0.9515 -0.2175
  355SOL    MW4 1420   0.064   0.145   0.438 -0.3140 -0.4530 -0.5905
  356SOL     OW 1421   3.171   2.650   0.862  0.2693 -0.0729  0.1925
  356SOL    HW2 1422   3.175   2.563   0.821  1.2197  0.6726 -1.3280
  356SOL    HW3 1423   3.235   2.702   0.814  1.1887  0.9294  2.4429
  356SOL    MW4 1424   3.180   2.645   0.851  0.5160  0.1577  0.2888
  357SOL     OW 1425   1.588   1.469   0.863  0.5197  0.6068 -0.0478
  357SOL    HW2 1426   1.507   1.514   0.841 -0.0407 -0.0147  0.7585
  357SOL    HW3 1427   1.598   1.482   0.957  0.3204 -1.0283  0.1961
  357SOL    MW4 1428   1.579   1.477   0.872  0.4195  0.3091  0.0908
  358SOL     OW 1429   2.476   2.275   0.868 -0.3609 -0.3651 -0.3729
  358SOL    HW2 1430   2.549   2.328   0.836  0.3096 -1.8077 -1.2938
  358SOL    HW3 1431   2.398   2.326   0.846  0.2824  0.3778 -0.9755
  358SOL    MW4 1432   2.476   2.288   0.861 -0.1876 -0.4574 -0.5739
  359SOL     OW 1433   3.703   0.079   0.430  0.3038 -0.0527 -0.0815
  359SOL    HW2 1434   3.797   0.097   0.433  0.1244  0.7864  0.9750
  359SOL    HW3 1435   3.666   0.156   0.388  0.1872 -0.8518 -1.4664
  359SOL    MW4 1436   3.711   0.091   0.425  0.2647 -0.0474 -0.1249
  360SOL     OW 1437   2.006   2.273   0.849  0.3087  0.1185 -0.1808
  360SOL    HW2 1438   2.022   2.280   0.943  1.4820  1.1499 -0.4415
  360SOL    HW3 1439   1.919   2.310   0.836 -1.2250 -2.9489  0.8995
  360SOL    MW4 1440   1.997   2.279   0.859  0.2612 -0.1501 -0.0727
  361SOL     OW 1441   4.243   3.883   0.850  0.3839 -0.3730  0.3101
  361SOL    HW2 1442   4.254   3.880   0.946 -0.4724 -1.0028  0.3887
  361SOL    HW3 1443   4.308   3.948   0.821  0.5004 -0.0172  1.3386
  361SOL    MW4 1444   4.253   3.891   0.859  0.2863 -0.4092  0.4561
  362SOL     OW 1445   1.786   2.424   0.756 -0.6046 -0.2331  0.6314
  362SOL    HW2 1446   1.796   2.514   0.786 -1.0950 -0.3570  1.1744
  362SOL    HW3 1447   1.769   2.432   0.662  0.6337  0.1676  0.4448
  362SOL    MW4 1448   1.785   2.437   0.747 -0.5060 -0.1966  0.6784
  363SOL     OW 1449   4.250   2.066   0.488 -0.1417  0.2431 -0.1164
  363SOL    HW2 1450   4.327   2.018   0.456 -0.3778  1.4905 -2.5994
  363SOL    HW3 1451   4.175   2.017   0.455 -0.5136 -1.7405  3.4211
  363SOL    MW4 1452   4.250   2.053   0.480 -0.2220  0.1459  0.0227
  364SOL     OW 1453   0.252   3.611   0.735  0.0490 -0.0695 -0.0387
  364SOL    HW2 1454   0.255   3.705   0.755 -0.7584  0.6317 -2.9087
  364SOL    HW3 1455   0.167   3.582   0.768  0.0037  0.3784  0.2365
  364SOL    MW4 1456   0.241   3.620   0.742 -0.0635  0.0821 -0.3811
  365SOL     OW 1457   3.800   0.514   0.772 -0.1557  0.2693  0.2213
  365SOL    HW2 1458   3.734   0.465   0.821 -0.3472  0.7917  0.4864
  365SOL    HW3 1459   3.780   0.606   0.790 -0.2730  0.4687 -0.8808
  365SOL    MW4 1460   3.789   0.520   0.781 -0.1964  0.3645  0.1109
  366SOL     OW 1461   4.349   3.470   0.408  0.3222 -0.1149 -0.2572
  366SOL    HW2 1462   4.430   3.484   0.359  1.3807  1.6864  1.8970
  366SOL    HW3 1463   4.313   3.557   0.421 -1.5867 -0.8380 -0.5488
  366SOL    MW4 1464   4.355   3.483   0.404  0.2100  0.0273 -0.0115
  367SOL     OW 1465   2.905   3.052   0.882 -0.5745 -0.1089 -0.4691
  367SOL    HW2 1466   2.930   2.964   0.852 -0.2139 -0.2388  0.1965
  367SOL    HW3 1467   2.826   3.073   0.832  0.3911 -0.0401 -1.9962
  367SOL    MW4 1468   2.898   3.043   0.871 -0.3996 -0.1170 -0.5828
  368SOL     OW 1469   1.804   4.343   0.766 -0.9049 -0.3584 -0.0686
  368SOL    HW2 1470   1.723   4.391   0.748  0.0570  1.6195  0.6880
  368SOL    HW3 1471   1.795   4.317   0.858 -1.3320 -1.4565 -0.4183
  368SOL    MW4 1472   1.792   4.346   0.776 -0.8343 -0.2424 -0.0149
  369SOL     OW 1473   3.981   0.104   0.465 -0.1640  0.0274  0.2582
  369SOL    HW2 1474   4.004   0.140   0.550 -0.1882 -1.4491  0.9142
  369SOL    HW3 1475   4.038   0.027   0.455  1.1654  1.2431 -1.9002
  369SOL    MW4 1476   3.991   0.098   0.475  0.0082 -0.0070  0.0600
  370SOL     OW 1477   2.916   0.012   0.832  0.3250  0.0465  0.1039
  370SOL    HW2 1478   3.005   0.042   0.810 -0.1423  0.9942 -0.5753
  370SOL    HW3 1479   2.859   0.076   0.789 -0.6997 -0.9910 -0.1012
  370SOL    MW4 1480   2.920   0.025   0.823  0.1281  0.0347 -0.0128
  371SOL     OW 1481   2.301   2.135   0.410  0.4765  0.4910 -0.0571
  371SOL    HW2 1482   2.374   2.115   0.468 -0.9849 -0.2922  1.5798
  371SOL    HW3 1483   2.314   2.226   0.384  1.5373  0.6390  0.9683
  371SOL    MW4 1484   2.312   2.144   0.414  0.4237  0.4072  0.2942
  372SOL     OW 1485   2.020   0.508   0.654  0.4909 -0.1907  0.1454
  372SOL    HW2 1486   2.015   0.481   0.562  2.2064  0.5353 -0.1782
  372SOL    HW3 1487   2.093   0.458   0.690  0.6067  0.4291  0.7889
  372SOL    MW4 1488   2.029   0.498   0.646  0.7325 -0.0132  0.1876
  373SOL     OW 1489   1.778   1.629   0.718 -0.5675  0.5130 -0.2685
  373SOL    HW2 1490   1.714   1.570   0.758  0.1931 -0.6048 -0.6728
  373SOL    HW3 1491   1.752   1.717   0.747 -0.9364 -0.1376  1.4122
  373SOL    MW4 1492   1.766   1.633   0.727 -0.5158  0.2797 -0.1001
  374SOL     OW 1493   3.321   3.514   0.760  0.1970 -0.1594 -0.4001
  374SOL    HW2 1494   3.235   3.484   0.788 -0.1276  1.3193  0.1935
  374SOL    HW3 1495   3.324   3.606   0.785  1.7513 -0.0685 -0.8865
  374SOL    MW4 1496   3.310   3.522   0.767  0.3592  0.0477 -0.3859
  375SOL     OW 1497   2.938   0.523   0.727 -0.0004  0.1574  0.3301
  375SOL    HW2 1498   2.913   0.611   0.754 -1.3499 -0.0088 -0.3353
  375SOL    HW3 1499   2.861   0.469   0.747  0.1266 -0.5235 -0.9584
  375SOL    MW4 1500   2.924   0.527   0.734 -0.1617  0.0456  0.0723
  376SOL     OW 1501   3.562   0.833   0.665 -0.3269 -0.0382 -0.2116
  376SOL    HW2 1502   3.549   0.769   0.595  0.4155  0.5747 -0.9156
  376SOL    HW3 1503   3.619   0.788   0.728 -1.2354 -0.6956  0.1563
  376SOL    MW4 1504   3.567   0.818   0.664 -0.3488 -0.0440 -0.2559
  377SOL     OW 1505   1.778   3.797   0.432  0.7253 -0.3613 -0.0299
  377SOL    HW2 1506   1.779   3.850   0.511 -0.0660 -1.1861  0.5467
  377SOL    HW3 1507   1.857   3.744   0.436  1.1721  0.2783 -0.2742
  377SOL    MW4 1508   1.788   3.797   0.443  0.6798 -0.3857  0.0140
  378SOL     OW 1509   3.364   2.337   0.396 -0.3324  0.1751  0.1930
  378SOL    HW2 1510   3.443   2.389   0.410  0.2022 -0.3876 -0.6866
  378SOL    HW3 1511   3.395   2.247   0.386 -1.0509 -0.0037 -0.5184
  378SOL    MW4 1512   3.378   2.332   0.396 -0.3567  0.0772 -0.0169
  379SOL     OW 1513   1.723   1.886   0.818  0.1315  0.2049 -0.1543
  379SOL    HW2 1514   1.806   1.928   0.796 -0.1520  0.3756 -0.9094
  379SOL    HW3 1515   1.657   1.939   0.774 -0.4608  0.6833  1.3097
  379SOL    MW4 1516   1.725   1.898   0.809  0.0159  0.2905 -0.0608
  380SOL     OW 1517   2.205   1.930   0.903  0.0542 -0.3411 -0.8668
  380SOL    HW2 1518   2.124   1.956   0.859 -0.1091 -1.2578 -1.1064
  380SOL    HW3 1519   2.274   1.971   0.852 -0.2747  0.9065 -0.3455
  380SOL    MW4 1520   2.203   1.939   0.891 -0.0107 -0.2974 -0.8296
  381SOL     OW 1521   2.511   0.605   0.422  0.3546 -0.5742 -0.5216
  381SOL    HW2 1522   2.508   0.563   0.508  0.5852  0.7080  0.1227
  381SOL    HW3 1523   2.603   0.629   0.410  0.6017 -2.0396 -1.7806
  381SOL    MW4 1524   2.523   0.602   0.432  0.4176 -0.5983 -0.6027
  382SOL     OW 1525   1.334   3.460   0.813 -0.1614  0.1419  0.5869
  382SOL    HW2 1526   1.249   3.492   0.781  0.1602  0.3171 -0.1006
  382SOL    HW3 1527   1.348   3.378   0.767  0.1313  0.2078  0.5593
  382SOL    MW4 1528   1.324   3.454   0.803 -0.0803  0.1737  0.4926
  383SOL     OW 1529   4.001   1.927   0.404 -0.1636 -0.0786 -0.4799
  383SOL    HW2 1530   3.994   1.908   0.311 -0.5365 -0.9050 -0.2898
  383SOL    HW3 1531   3.913   1.952   0.430  0.2259  1.4642 -0.6254
  383SOL    MW4 1532   3.988   1.928   0.395 -0.1614  0.0159 -0.4740
  384SOL     OW 1533   0.917   2.636   0.854 -0.2470 -0.1978 -0.1406
  384SOL    HW2 1534   0.980   2.702   0.826 -0.8199  0.9267  1.1719
  384SOL    HW3 1535   0.918   2.641   0.950 -0.9876 -1.4427 -0.0586
  384SOL    MW4 1536   0.926   2.645   0.863 -0.4203 -0.2137  0.0434
  385SOL     OW 1537   2.215   3.477   0.859 -0.3021 -0.2164  0.3986
  385SOL    HW2 1538   2.140   3.514   0.814  0.0300 -1.0336 -0.8680
  385SOL    HW3 1539   2.223   3.388   0.824  0.5971 -0.5137  1.3058
  385SOL    MW4 1540   2.206   3.470   0.848 -0.1396 -0.3634  0.3512
  386SOL     OW 1541   1.088   0.591   0.458 -0.3514 -0.1871  0.0346
  386SOL    HW2 1542   1.020   0.652   0.430  0.4119  0.3813 -0.6275
  386SOL    HW3 1543   1.169   0.629   0.424  0.3618 -0.5691  1.2651
  386SOL    MW4 1544   1.090   0.604   0.450 -0.1566 -0.1625  0.1096
  387SOL     OW 1545   1.318   1.124   0.846  0.0830 -0.0879 -0.6079
  387SOL    HW2 1546   1.403   1.138   0.804  0.2763 -0.7292 -0.4255
  387SOL    HW3 1547   1.285   1.042   0.808  0.8304 -1.3602  1.4155
  387SOL    MW4 1548   1.325   1.115   0.835  0.2071 -0.3404 -0.3169
  388SOL     OW 1549   4.044   3.178   0.828  0.7709  0.2103 -0.5808
  388SOL    HW2 1550   4.047   3.179   0.732 -0.4573  0.9871 -0.6324
  388SOL    HW3 1551   4.024   3.269   0.852 -0.9810 -0.3769  0.2975
  388SOL    MW4 1552   4.041   3.190   0.818  0.3777  0.2353 -0.4717
  389SOL     OW 1553   3.583   1.077   0.876 -0.0430 -0.4036 -0.0652
  389SOL    HW2 1554   3.602   1.084   0.969  1.0124  1.0976 -0.3646
  389SOL    HW3 1555   3.615   0.991   0.850  1.1872 -0.1683  0.6276
  389SOL    MW4 1556   3.590   1.067   0.885  0.2586 -0.1745 -0.0133
  390SOL     OW 1557   0.493   0.139   0.774  0.0099  0.0838 -0.9695
  390SOL    HW2 1558   0.574   0.092   0.794  0.3207  1.3432  0.8468
  390SOL    HW3 1559   0.423   0.077   0.797  0.4287  0.2250  0.8057
  390SOL    MW4 1560   0.494   0.125   0.780  0.1061  0.2686 -0.4957
  391SOL     OW 1561   0.520   1.623   0.485  0.2496 -0.2498  0.1826
  391SOL    HW2 1562   0.526   1.527   0.482  0.7054 -0.1944 -0.5560
  391SOL    HW3 1563   0.452   1.645   0.421 -0.2226 -0.1113  0.7243
  391SOL    MW4 1564   0.512   1.613   0.476  0.2475 -0.2242  0.1566
  392SOL     OW 1565   2.500   3.070   0.892 -0.0064 -0.0918  0.0780
  392SOL    HW2 1566   2.494   3.078   0.987 -0.3031 -0.3483  0.0846
  392SOL    HW3 1567   2.469   2.981   0.874 -1.4811  0.4986 -0.3861
  392SOL    MW4 1568   2.495   3.059   0.902 -0.2401 -0.0477  0.0176
  393SOL     OW 1569   3.566   2.710   0.834 -0.3321 -0.0090  0.2708
  393SOL    HW2 1570   3.494   2.763   0.803  0.0169  0.2127 -0.1589
  393SOL    HW3 1571   3.563   2.719   0.930  0.3916  1.6572  0.1468
  393SOL    MW4 1572   3.556   2.718   0.843 -0.1905  0.2401  0.1977
  394SOL     OW 1573   3.422   0.726   0.445 -0.0457  0.4400 -0.0250
  394SOL    HW2 1574   3.399   0.649   0.394  2.3165 -0.2508 -0.0937
  394SOL    HW3 1575   3.427   0.797   0.381 -1.8797  0.6105 -0.0084
  394SOL    MW4 1576   3.419   0.725   0.430  0.0240  0.3714 -0.0319
  395SOL     OW 1577   3.601   0.118   0.691  0.1930 -0.0517 -0.4254
  395SOL    HW2 1578   3.627   0.109   0.599  0.5959  0.7963 -0.4003
  395SOL    HW3 1579   3.595   0.213   0.705  1.3488 -0.1433  0.7639
  395SOL    MW4 1580   3.604   0.130   0.681  0.3987  0.0481 -0.2652
  396SOL     OW 1581   4.261   4.344   0.771  0.0066  0.4095 -0.1004
  396SOL    HW2 1582   4.274   4.431   0.807 -1.5967  0.5494  0.2172
  396SOL    HW3 1583   4.327   4.335   0.703 -0.8279  2.5060 -1.2296
  396SOL    MW4 1584   4.271   4.354   0.767 -0.3150  0.7046 -0.2075
  397SOL     OW 1585   4.236   2.325   0.402 -0.8555  0.3979 -0.1972
  397SOL    HW2 1586   4.249   2.329   0.308  1.1602  0.3584  0.0564
  397SOL    HW3 1587   4.260   2.235   0.426 -1.8577  0.2502  0.2934
  397SOL    MW4 1588   4.241   2.313   0.393 -0.7218  0.3732 -0.0990
  398SOL     OW 1589   2.501   0.489   0.685 -0.5783  0.3486 -0.1373
  398SOL    HW2 1590   2.498   0.577   0.723 -0.7870  0.7528 -1.0723
  398SOL    HW3 1591   2.564   0.442   0.740 -1.3827  0.7126  1.1177
  398SOL    MW4 1592   2.509   0.495   0.697 -0.7120  0.4500 -0.0951
  399SOL     OW 1593   2.912   2.040   0.730 -0.0478 -0.1656 -0.2662
  399SOL    HW2 1594   2.980   1.988   0.774  0.0541  0.5435  0.4369
  399SOL    HW3 1595   2.903   2.118   0.785 -1.7021 -0.4247 -0.1433
  399SOL    MW4 1596   2.920   2.043   0.743 -0.2526 -0.1062 -0.1572
  400SOL     OW 1597   2.338   1.672   0.542  0.0701 -0.3390  0.0009
  400SOL    HW2 1598   2.364   1.583   0.521  1.8162  0.2079 -0.2743
  400SOL    HW3 1599   2.288   1.664   0.624 -1.5566 -1.7728 -1.0969
  400SOL    MW4 1600   2.335   1.660   0.550  0.0858 -0.4560 -0.1803
  401SOL     OW 1601   2.772   1.154   0.455  0.4254  0.0868  0.3996
  401SOL    HW2 1602   2.832   1.138   0.382  1.9550 -1.4845  1.9381
  401SOL    HW3 1603   2.828   1.184   0.526 -0.8909  0.5773  1.2525
  401SOL    MW4 1604   2.787   1.156   0.455  0.4535 -0.0558  0.7152
  402SOL     OW 1605   3.302   3.213   0.424  0.2883  0.3333  0.5231
  402SOL    HW2 1606   3.207   3.223   0.428  0.2139 -0.5756  1.2615
  402SOL    HW3 1607   3.335   3.299   0.398 -0.6163  1.1754  2.0837
  402SOL    MW4 1608   3.294   3.226   0.421  0.1592  0.3245  0.8265
  403SOL     OW 1609   0.235   2.309   0.853 -0.1855 -0.3779  0.0609
  403SOL    HW2 1610   0.236   2.327   0.947  2.4062  1.6932 -0.3190
  403SOL    HW3 1611   0.151   2.343   0.823 -0.5662 -0.0783  1.4496
  403SOL    MW4 1612   0.224   2.316   0.861  0.1062 -0.0651  0.1940
  404SOL     OW 1613   3.095   2.429   0.450 -0.0280 -0.4839 -0.3291
  404SOL    HW2 1614   3.081   2.442   0.544  0.8610 -3.2813  0.2267
  404SOL    HW3 1615   3.188   2.409   0.442  0.1563  0.9165 -1.9881
  404SOL    MW4 1616   3.105   2.428   0.462  0.1136 -0.6682 -0.4746
  405SOL     OW 1617   1.078   4.143   0.418 -0.5394  0.2390  0.1246
  405SOL    HW2 1618   1.022   4.075   0.455  0.3342  0.3752  1.7684
  405SOL    HW3 1619   1.165   4.103   0.417 -0.2427  0.8945 -0.0869
  405SOL    MW4 1620   1.082   4.128   0.423 -0.3850  0.3435  0.3136
  406SOL     OW 1621   0.707   4.409   0.788 -0.4269 -0.0091  0.2323
  406SOL    HW2 1622   0.616   4.386   0.806 -0.6066 -0.5057 -1.2223
  406SOL    HW3 1623   0.712   4.416   0.692  0.5630  2.1336  0.3961
  406SOL    MW4 1624   0.696   4.407   0.777 -0.3200  0.2081  0.0620
  407SOL     OW 1625   2.681   2.447   0.814 -0.5042 -0.0245  0.2337
  407SOL    HW2 1626   2.692   2.466   0.721  0.1846  1.2718  0.5764
  407SOL    HW3 1627   2.664   2.532   0.855 -1.5543 -0.6797  1.1882
  407SOL    MW4 1628   2.680   2.461   0.807 -0.5519  0.0601  0.4049
  408SOL     OW 1629   2.395   0.859   0.328 -0.2179  0.2902  0.1706
  408SOL    HW2 1630   2.409   0.764   0.329  0.7797  0.4263  0.3051
  408SOL    HW3 1631   2.392   0.881   0.235  1.2406  0.3370  0.1100
  408SOL    MW4 1632   2.397   0.850   0.316  0.1062  0.3143  0.1804
  409SOL     OW 1633   2.133   2.493   0.516 -0.6201 -0.3140  0.4592
  409SOL    HW2 1634   2.136   2.589   0.519  0.5260 -0.3327 -0.0867
  409SOL    HW3 1635   2.193   2.469   0.446  0.3433 -1.5145  1.6796
  409SOL    MW4 1636   2.141   2.503   0.507 -0.3418 -0.4748  0.5482
  410SOL     OW 1637   0.756   4.404   0.502  0.3732  0.1997  0.3816
  410SOL    HW2 1638   0.849   4.392   0.483  0.2378 -1.1265  0.4872
  410SOL    HW3 1639   0.717   4.318   0.483 -1.2951  1.4956 -2.3964
  410SOL    MW4 1640   0.763   4.391   0.497  0.1352  0.1957  0.0290
  411SOL     OW 1641   0.608   0.537   0.725 -0.0421 -0.0147  0.4462
  411SOL    HW2 1642   0.624   0.613   0.780 -2.0087  0.7133  0.0256
  411SOL    HW3 1643   0.683   0.480   0.741  1.2980  1.8572  0.9984
  411SOL    MW4 1644   0.620   0.539   0.734 -0.1248  0.3283  0.4636
  412SOL     OW 1645   1.543   2.829   0.674 -0.3605  0.2577 -0.0623
  412SOL    HW2 1646   1.559   2.914   0.715 -1.6094  0.1409  0.7253
  412SOL    HW3 1647   1.469   2.793   0.723  0.1349 -1.2745 -0.4076
  412SOL    MW4 1648   1.535   2.835   0.686 -0.4599  0.0401 -0.0039
  413SOL     OW 1649   2.601   2.941   0.362 -0.0498  0.0352 -0.2718
  413SOL    HW2 1650   2.532   2.917   0.425 -0.3196 -1.2740 -1.0547
  413SOL    HW3 1651   2.615   2.862   0.310  2.8312 -0.0690  0.5745
  413SOL    MW4 1652   2.593   2.927   0.364  0.2947 -0.1513 -0.2634
  414SOL     OW 1653   2.488   1.291   0.778  0.0482 -0.0360 -0.0742
  414SOL    HW2 1654   2.427   1.223   0.808 -0.3647  1.1435  1.8130
  414SOL    HW3 1655   2.574   1.258   0.802  0.0807 -1.1272 -1.6108
  414SOL    MW4 1656   2.491   1.277   0.785 -0.0020 -0.0243 -0.0280
  415SOL     OW 1657   2.532   3.226   0.346 -0.2514  0.3249  0.1384
  415SOL    HW2 1658   2.570   3.152   0.297  1.4762  0.4667  1.2119
  415SOL    HW3 1659   2.453   3.190   0.385  0.6579 -1.0235  0.7837
  415SOL    MW4 1660   2.527   3.211   0.345  0.0965  0.1657  0.3652
  416SOL     OW 1661   2.930   4.422   0.744 -0.0563 -0.0311  0.2444
  416SOL    HW2 1662   2.922   4.516   0.763 -1.2410  0.1863 -1.2634
  416SOL    HW3 1663   2.846   4.385   0.769  0.3672 -0.6804  0.7153
  416SOL    MW4 1664   2.918   4.430   0.750 -0.1567 -0.0881  0.1076
  417SOL     OW 1665   2.228   1.660   0.804  0.5123 -0.1712 -0.0271
  417SOL    HW2 1666   2.232   1.747   0.845  0.5590  0.1754 -0.7491
  417SOL    HW3 1667   2.309   1.617   0.829  0.0860 -0.3435  1.0762
  417SOL    MW4 1668   2.239   1.666   0.813  0.4622 -0.1482  0.0232
  418SOL     OW 1669   0.256   3.929   0.428  0.0870 -0.2172 -0.3023
  418SOL    HW2 1670   0.309   4.006   0.408  0.3069  0.2205  1.8405
  418SOL    HW3 1671   0.168   3.963   0.440  0.2102 -0.2725  0.7852
  418SOL    MW4 1672   0.252   3.944   0.427  0.1323 -0.1667  0.1239
  419SOL     OW 1673   2.169   0.986   0.497 -0.6657 -0.3017 -0.1931
  419SOL    HW2 1674   2.184   1.078   0.477 -0.0442 -0.3205  0.1773
  419SOL    HW3 1675   2.239   0.939   0.451 -0.8925 -0.5743 -0.2631
  419SOL    MW4 1676   2.180   0.992   0.488 -0.6136 -0.3402 -0.1534
  420SOL     OW 1677   2.719   3.934   0.498 -0.1465  0.3841 -0.3554
  420SOL    HW2 1678   2.702   3.953   0.591 -1.3974 -1.1556 -0.2587
  420SOL    HW3 1679   2.814   3.942   0.490  0.0691 -0.2862  1.2591
  420SOL    MW4 1680   2.729   3.937   0.509 -0.2831  0.0925 -0.1296
  421SOL     OW 1681   2.650   0.132   0.427  0.2319  0.3745 -0.2627
  421SOL    HW2 1682   2.610   0.210   0.389  1.7820  1.0612 -0.5133
  421SOL    HW3 1683   2.734   0.123   0.381  0.8244 -0.4617  0.9517
  421SOL    MW4 1684   2.656   0.141   0.416  0.5146  0.3548 -0.1355
  422SOL     OW 1685   2.683   4.284   0.822 -0.0131 -0.1021 -0.0215
  422SOL    HW2 1686   2.669   4.283   0.916 -0.3299  1.0456 -0.0461
  422SOL    HW3 1687   2.699   4.192   0.798  1.7766 -0.1829  1.3926
  422SOL    MW4 1688   2.683   4.272   0.831  0.1813  0.0386  0.1619
  423SOL     OW 1689   4.021   0.386   0.887 -0.4922  0.5357  0.2648
  423SOL    HW2 1690   4.095   0.432   0.847 -0.2797  0.2383  0.3156
  423SOL    HW3 1691   3.943   0.428   0.848 -0.3247  1.6616  1.1030
  423SOL    MW4 1692   4.020   0.398   0.876 -0.4421  0.6450  0.3821
  424SOL     OW 1693   2.857   3.606   0.706 -0.2247  0.3121 -0.1601
  424SOL    HW2 1694   2.885   3.593   0.615 -0.8647 -0.5856 -0.2388
  424SOL    HW3 1695   2.895   3.690   0.731 -0.3476  0.7411 -1.3811
  424SOL    MW4 1696   2.866   3.615   0.697 -0.3254  0.2503 -0.3316
  425SOL     OW 1697   1.995   3.396   0.366  0.4303 -0.3128  0.1578
  425SOL    HW2 1698   2.088   3.386   0.345  0.4962  1.1035 -0.2500
  425SOL    HW3 1699   1.986   3.488   0.392 -0.5186 -0.8789  1.9374
  425SOL    MW4 1700   2.006   3.407   0.367  0.3138 -0.2007  0.3388
  426SOL     OW 1701   3.350   2.036   0.772 -0.0506 -0.4858  0.5256
  426SOL    HW2 1702   3.350   2.129   0.792 -1.0052  0.0320 -1.6942
  426SOL    HW3 1703   3.429   2.002   0.813  0.9072  1.5167  0.3804
  426SOL    MW4 1704   3.360   2.044   0.780 -0.0502 -0.1532  0.2136
  427SOL     OW 1705   2.700   1.883   0.777 -0.0547 -0.2710 -0.2759
  427SOL    HW2 1706   2.707   1.882   0.872 -0.7678  0.9416 -0.2030
  427SOL    HW3 1707   2.772   1.937   0.748  0.2534 -0.7654 -0.4409
  427SOL    MW4 1708   2.710   1.890   0.786 -0.1081 -0.1762 -0.2880
  428SOL     OW 1709   2.915   4.293   0.497  0.0555 -0.5695  0.2380
  428SOL    HW2 1710   2.833   4.318   0.456 -0.6089 -2.0243  0.6366
  428SOL    HW3 1711   2.921   4.348   0.575 -1.0407 -1.1378  0.7333
  428SOL    MW4 1712   2.905   4.303   0.502 -0.1768 -0.8364  0.3559
  429SOL     OW 1713   3.119   1.897   0.849 -0.4447  0.2925  0.6594
  429SOL    HW2 1714   3.203   1.938   0.828 -0.3165 -0.5041 -0.3641
  429SOL    HW3 1715   3.117   1.897   0.945  0.5580  0.6397  0.6900
  429SOL    MW4 1716   3.130   1.903   0.859 -0.2955  0.2332  0.5284
  430SOL     OW 1717   3.508   1.313   0.489  0.2708 -0.1865  0.0748
  430SOL    HW2 1718   3.603   1.310   0.477  0.3935  1.3346  0.6342
  430SOL    HW3 1719   3.480   1.392   0.443 -0.6921 -0.4493  0.1891
  430SOL    MW4 1720   3.517   1.323   0.481  0.1599 -0.0205  0.1637
  431SOL     OW 1721   3.135   3.985   0.734  0.2112 -0.0524  0.2667
  431SOL    HW2 1722   3.150   4.076   0.758 -1.6516 -0.1971  2.1616
  431SOL    HW3 1723   3.101   3.988   0.645 -0.0498  1.1130  0.3984
  431SOL    MW4 1724   3.132   3.997   0.726 -0.0690  0.0823  0.5341
  432SOL     OW 1725   1.589   0.581   0.451 -0.2377  0.0371 -0.9093
  432SOL    HW2 1726   1.679   0.595   0.423  0.4966 -1.2540  0.6781
  432SOL    HW3 1727   1.568   0.492   0.422 -0.5047 -0.1929 -0.0309
  432SOL    MW4 1728   1.598   0.571   0.444 -0.1761 -0.1636 -0.5840
  433SOL     OW 1729   3.554   4.268   0.836 -0.4342  0.3153  0.0217
  433SOL    HW2 1730   3.476   4.314   0.805 -0.9954 -2.0664 -2.2777
  433SOL    HW3 1731   3.627   4.312   0.793 -0.6492  1.3566  0.7123
  433SOL    MW4 1732   3.554   4.280   0.826 -0.5366  0.1384 -0.1906
  434SOL     OW 1733   3.085   2.417   0.735  0.1844 -0.1043  0.1198
  434SOL    HW2 1734   3.017   2.373   0.785 -0.1638  1.0151  0.6603
  434SOL    HW3 1735   3.164   2.366   0.751 -0.8236 -2.3046 -1.7460
  434SOL    MW4 1736   3.087   2.405   0.744  0.0055 -0.2469 -0.0551
  435SOL     OW 1737   1.426   1.030   0.451  0.0789  0.5771  0.0894
  435SOL    HW2 1738   1.395   0.973   0.521 -1.2930  1.5007  0.2714
  435SOL    HW3 1739   1.464   0.971   0.386 -1.4064 -0.5602  0.2157
  435SOL    MW4 1740   1.427   1.015   0.451 -0.2981  0.5489  0.1301
  436SOL     OW 1741   0.192   1.982   0.497 -0.4100  0.5531  0.1249
  436SOL    HW2 1742   0.213   1.977   0.591  1.6362  1.4726 -0.2456
  436SOL    HW3 1743   0.182   2.076   0.480 -1.1073  0.3618 -0.5067
  436SOL    MW4 1744   0.194   1.994   0.507 -0.2320  0.6492 -0.0073
  437SOL     OW 1745   0.715   2.852   0.460 -0.1373  0.4298 -0.2029
  437SOL    HW2 1746   0.698   2.847   0.555  0.2334 -0.8058 -0.1887
  437SOL    HW3 1747   0.639   2.808   0.421  0.0529  0.3111 -0.4376
  437SOL    MW4 1748   0.702   2.845   0.468 -0.0633  0.2511 -0.2319
  438SOL     OW 1749   3.728   1.963   0.472 -0.7411  0.0454 -0.0891
  438SOL    HW2 1750   3.655   2.009   0.430  0.7160  2.4869 -0.0195
  438SOL    HW3 1751   3.736   2.005   0.558  0.3302 -0.6264  0.1420
  438SOL    MW4 1752   3.719   1.975   0.478 -0.4075  0.2789 -0.0494
  439SOL     OW 1753   1.549   2.313   0.830 -0.1661 -0.6895  0.1681
  439SOL    HW2 1754   1.627   2.356   0.795  0.8754 -1.6038  1.3321
  439SOL    HW3 1755   1.553   2.224   0.795 -0.9866 -0.5814 -0.2142
  439SOL    MW4 1756   1.559   2.307   0.821 -0.1369 -0.7958  0.2713
  440SOL     OW 1757   2.267   0.294   0.441 -0.2012 -0.0870 -0.3990
  440SOL    HW2 1758   2.263   0.334   0.528  1.3331 -1.4109  0.3145
  440SOL    HW3 1759   2.185   0.319   0.399 -0.8046  0.8725  1.2986
  440SOL    MW4 1760   2.256   0.303   0.447 -0.0784 -0.1350 -0.0809
  441SOL     OW 1761   4.468   4.326   0.592  0.1471  0.3334  0.7613
  441SOL    HW2 1762   4.459   4.239   0.553 -1.1181  0.0776  1.6045
  441SOL    HW3 1763   4.560   4.348   0.580  0.6355 -1.4155  1.1549
  441SOL    MW4 1764   4.479   4.317   0.585  0.0446  0.0689  0.9245
  442SOL     OW 1765   3.571   2.969   0.354  0.1322 -0.0275 -0.0659
  442SOL    HW2 1766   3.636   2.908   0.389 -0.5301  0.2745  1.7146
  442SOL    HW3 1767   3.489   2.921   0.355  0.0770  0.0214 -1.1440
  442SOL    MW4 1768   3.569   2.955   0.359  0.0375  0.0188  0.0268
  443SOL     OW 1769   4.042   2.450   0.722  0.3469 -0.2122 -0.0810
  443SOL    HW2 1770   4.066   2.510   0.792  0.2232 -0.5102  0.2158
  443SOL    HW3 1771   4.060   2.499   0.641 -2.7282  1.4309  0.1424
  443SOL    MW4 1772   4.048   2.464   0.720 -0.0751 -0.0347 -0.0124
  444SOL     OW 1773   3.622   0.331   0.908 -0.4146 -0.2001  0.1216
  444SOL    HW2 1774   3.543   0.381   0.891 -0.0653  0.4747  0.4664
  444SOL    HW3 1775   3.629   0.328   1.003  1.6061  2.3609  0.1032
  444SOL    MW4 1776   3.613   0.337   0.918 -0.1019  0.2268  0.1647
  445SOL     OW 1777   4.231   0.983   0.382  0.7697 -0.1445  0.4087
  445SOL    HW2 1778   4.205   0.957   0.293 -0.3948  0.2143  0.6291
  445SOL    HW3 1779   4.165   1.047   0.408  1.5239  0.3001  1.2609
  445SOL    MW4 1780   4.219   0.988   0.373  0.7156 -0.0385  0.5503
  446SOL     OW 1781   3.573   0.324   0.394  0.1783 -0.3630  0.3127
  446SOL    HW2 1782   3.523   0.327   0.475 -0.3766  1.4672 -0.0684
  446SOL    HW3 1783   3.653   0.372   0.414 -1.0067  2.1993 -0.8787
  446SOL    MW4 1784   3.577   0.331   0.407 -0.0512  0.2165  0.1052
  447SOL     OW 1785   2.448   0.748   0.834 -0.3515  0.1112  0.3164
  447SOL    HW2 1786   2.520   0.812   0.828  1.2761 -1.8031 -1.5497
  447SOL    HW3 1787   2.369   0.799   0.820  0.7672  2.0607  0.9766
  447SOL    MW4 1788   2.447   0.763   0.831  0.0108  0.1158  0.1573
  448SOL     OW 1789   3.235   0.916   0.524 -0.1139 -0.3049 -0.0386
  448SOL    HW2 1790   3.290   0.841   0.501 -1.3059 -0.8036 -1.2935
  448SOL    HW3 1791   3.273   0.989   0.476 -0.4602 -0.6113 -0.7717
  448SOL    MW4 1792   3.247   0.916   0.515 -0.3169 -0.4111 -0.3009
  449SOL     OW 1793   3.793   1.253   0.791  0.7292 -0.0481  0.0368
  449SOL    HW2 1794   3.872   1.219   0.833  1.0523 -0.6024 -0.9940
  449SOL    HW3 1795   3.724   1.191   0.814  0.8241 -0.1475  0.0519
  449SOL    MW4 1796   3.794   1.240   0.799  0.7844 -0.1343 -0.0972
  450SOL     OW 1797   3.323   3.078   0.871  0.0324 -0.5486 -0.0597
  450SOL    HW2 1798   3.323   3.083   0.966  0.0914 -1.4523 -0.0162
  450SOL    HW3 1799   3.410   3.109   0.845 -0.2080  0.3208  0.1410
  450SOL    MW4 1800   3.334   3.083   0.880  0.0085 -0.5531 -0.0275
  451SOL     OW 1801   3.376   1.522   0.845 -0.0524  0.0981  0.0483
  451SOL    HW2 1802   3.388   1.519   0.940  1.6599  0.0805 -0.1502
  451SOL    HW3 1803   3.391   1.431   0.817  0.9572  0.3895 -0.3885
  451SOL    MW4 1804   3.380   1.510   0.854  0.3067  0.1342 -0.0355
  452SOL     OW 1805   0.674   2.815   0.763 -0.2318  0.6000  0.2851
  452SOL    HW2 1806   0.742   2.748   0.759  1.1932  1.8708  2.4730
  452SOL    HW3 1807   0.608   2.778   0.821  0.0030  0.6281  0.5671
  452SOL    MW4 1808   0.674   2.801   0.770 -0.0128  0.7714  0.6109
  453SOL     OW 1809   2.722   2.263   0.413  0.5161 -0.4866  0.1246
  453SOL    HW2 1810   2.808   2.221   0.417  0.3762 -0.9653 -1.6047
  453SOL    HW3 1811   2.663   2.200   0.455  0.9472 -0.3008  1.0188
  453SOL    MW4 1812   2.726   2.249   0.419  0.5545 -0.5252  0.0144
  454SOL     OW 1813   1.148   1.073   0.408  0.2894 -0.4087  0.1042
  454SOL    HW2 1814   1.243   1.060   0.404  0.2977  0.0513 -1.2505
  454SOL    HW3 1815   1.136   1.167   0.396 -0.4278 -0.6690 -1.3213
  454SOL    MW4 1816   1.159   1.084   0.406  0.1958 -0.3824 -0.2626
  455SOL     OW 1817   2.273   3.194   0.776  0.0511 -0.1003  0.0459
  455SOL    HW2 1818   2.349   3.157   0.820 -0.6846  0.6029  1.9782
  455SOL    HW3 1819   2.199   3.145   0.811 -0.4555 -0.3954 -1.3963
  455SOL    MW4 1820   2.273   3.183   0.787 -0.1128 -0.0465  0.1106
  456SOL     OW 1821   3.066   3.442   0.830 -0.1953 -0.4626  0.2893
  456SOL    HW2 1822   3.066   3.354   0.793 -2.0085 -0.7277  0.8590
  456SOL    HW3 1823   3.003   3.491   0.777 -0.7087 -0.0766  1.2366
  456SOL    MW4 1824   3.057   3.437   0.818 -0.5023 -0.4467  0.4894
  457SOL     OW 1825   3.826   2.759   0.743  0.4391  0.1647  0.4864
  457SOL    HW2 1826   3.812   2.778   0.650 -0.1804 -0.7206  0.3922
  457SOL    HW3 1827   3.740   2.730   0.774  0.4947  1.0544  1.4814
  457SOL    MW4 1828   3.813   2.758   0.735  0.3647  0.1652  0.6052
  458SOL     OW 1829   2.240   2.405   0.761 -0.2385  0.2903 -0.1530
  458SOL    HW2 1830   2.157   2.364   0.783  0.1053 -0.2929  0.0574
  458SOL    HW3 1831   2.232   2.427   0.668 -0.9524  1.0125  0.0738
  458SOL    MW4 1832   2.228   2.403   0.752 -0.2873  0.3086 -0.0953
  459SOL     OW 1833   1.038   4.396   0.512 -0.2594 -0.4697  0.0814
  459SOL    HW2 1834   1.041   4.307   0.477 -1.8498 -0.9732  1.2014
  459SOL    HW3 1835   1.123   4.434   0.487  0.0244 -1.9460 -1.2832
  459SOL    MW4 1836   1.050   4.389   0.504 -0.4318 -0.7309  0.0491
  460SOL     OW 1837   4.157   4.560   0.423  0.5053 -0.2535 -0.3065
  460SOL    HW2 1838   4.148   4.534   0.331  1.0073 -0.0099 -0.4325
  460SOL    HW3 1839   4.156   4.478   0.472  0.1715 -0.3809 -0.5275
  460SOL    MW4 1840   4.156   4.546   0.417  0.5275 -0.2382 -0.3523
  461SOL     OW 1841   0.036   2.092   0.155 -0.0138 -0.2326 -0.2160
  461SOL    HW2 1842   0.007   2.011   0.197  0.7420  0.4140  1.6144
  461SOL    HW3 1843   0.131   2.080   0.145 -0.0839 -0.0763 -1.0956
  461SOL    MW4 1844   0.045   2.080   0.159  0.0766 -0.1267 -0.0906
  462SOL     OW 1845   1.349   4.030   0.755  0.1205  0.1241  0.4132
  462SOL    HW2 1846   1.421   3.968   0.768  0.0840  0.2439  1.2250
  462SOL    HW3 1847   1.271   3.985   0.788 -0.1212  0.1148 -0.1721
  462SOL    MW4 1848   1.348   4.016   0.761  0.0838  0.1387  0.4431
  463SOL     OW 1849   3.665   3.977   0.436  0.3525  0.0155 -0.2230
  463SOL    HW2 1850   3.694   3.892   0.402 -1.1765 -0.3072 -0.7458
  463SOL    HW3 1851   3.645   3.960   0.528  1.6837  0.2131  0.1114
  463SOL    MW4 1852   3.666   3.963   0.444  0.3264 -0.0010 -0.2479
  464SOL     OW 1853   0.237   1.050   0.360 -0.1098 -0.0481  0.0808
  464SOL    HW2 1854   0.315   1.033   0.412 -0.0068 -1.3575 -0.5030
  464SOL    HW3 1855   0.265   1.038   0.269 -0.7958  0.2205 -0.1707
  464SOL    MW4 1856   0.251   1.046   0.355 -0.1867 -0.1854 -0.0294
  465SOL     OW 1857   3.972   1.644   0.488  0.2094  0.1772  0.1089
  465SOL    HW2 1858   3.881   1.652   0.459  0.1826  0.3502  0.2371
  465SOL    HW3 1859   4.016   1.720   0.449  0.5845 -0.6175 -1.0194
  465SOL    MW4 1860   3.966   1.655   0.479  0.2553  0.0952 -0.0230
  466SOL     OW 1861   4.254   4.650   0.824  0.1695  0.5342 -0.3585
  466SOL    HW2 1862   4.244   4.654   0.919  0.9644  0.2703 -0.2616
  466SOL    HW3 1863   4.340   4.690   0.808  1.4868 -2.3180 -0.6865
  466SOL    MW4 1864   4.264   4.656   0.835  0.4482  0.1230 -0.3890
  467SOL     OW 1865   0.243   1.291   0.511  0.0266  0.0434 -0.5143
  467SOL    HW2 1866   0.334   1.311   0.532 -0.4141  1.2318  0.3247
  467SOL    HW3 1867   0.247   1.244   0.428  1.5538 -1.7640  0.5604
  467SOL    MW4 1868   0.256   1.288   0.502  0.1699 -0.0383 -0.2618
  468SOL     OW 1869   2.897   0.131   0.296  0.0454 -0.2663 -0.2540
  468SOL    HW2 1870   2.914   0.225   0.298 -2.7052  0.3073 -1.1218
  468SOL    HW3 1871   2.962   0.093   0.355  2.0427  2.0115 -0.9001
  468SOL    MW4 1872   2.908   0.139   0.304 -0.0540  0.1099 -0.4538
  469SOL     OW 1873   1.726   2.749   0.398  0.0285  0.2464 -0.2566
  469SOL    HW2 1874   1.680   2.794   0.469  1.1191 -1.3448  1.4965
  469SOL    HW3 1875   1.659   2.736   0.331 -0.7760  2.6830  0.0285
  469SOL    MW4 1876   1.711   2.753   0.399  0.0662  0.3580  0.0123
  470SOL     OW 1877   2.210   0.893   0.762  0.0597 -0.3603 -0.2013
  470SOL    HW2 1878   2.210   0.933   0.675 -0.0822  0.7827  0.3195
  470SOL    HW3 1879   2.120   0.864   0.775  0.0072 -0.2385 -0.2965
  470SOL    MW4 1880   2.198   0.894   0.752  0.0340 -0.1934 -0.1452
  471SOL     OW 1881   4.485   4.040   0.504  0.3865  0.3664 -0.0916
  471SOL    HW2 1882   4.392   4.037   0.483  0.7454  0.0230 -1.7419
  471SOL    HW3 1883   4.491   4.007   0.594 -0.9516 -0.7735 -0.4006
  471SOL    MW4 1884   4.474   4.035   0.513  0.2573  0.1707 -0.3501
  472SOL     OW 1885   3.338   1.136   0.387 -0.0226 -0.1624 -0.3067
  472SOL    HW2 1886   3.272   1.197   0.353  0.9651  0.1537 -1.7068
  472SOL    HW3 1887   3.407   1.192   0.423 -0.5077 -0.4945  1.1787
  472SOL    MW4 1888   3.338   1.151   0.387  0.0437 -0.1645 -0.2955
  473SOL     OW 1889   1.339   0.185   0.743 -0.1676 -0.0457  0.4300
  473SOL    HW2 1890   1.341   0.269   0.788 -0.6596 -0.6100  1.5119
  473SOL    HW3 1891   1.415   0.137   0.778  0.1856 -0.0081 -0.2768
  473SOL    MW4 1892   1.350   0.189   0.753 -0.1859 -0.1152  0.4795
  474SOL     OW 1893   4.202   4.033   0.485 -0.1742  0.2555 -0.9091
  474SOL    HW2 1894   4.194   4.126   0.464  0.7374  1.1495  2.3414
  474SOL    HW3 1895   4.135   4.018   0.552  0.5876 -1.1032 -0.4296
  474SOL    MW4 1896   4.192   4.043   0.491  0.0466  0.1942 -0.4170
  475SOL     OW 1897   0.645   4.146   0.512 -0.8099  0.0234  0.2172
  475SOL    HW2 1898   0.710   4.081   0.485 -0.6547 -0.8969  2.6466
  475SOL    HW3 1899   0.571   4.132   0.454  0.2157 -0.5836 -0.9690
  475SOL    MW4 1900   0.644   4.135   0.501 -0.6541 -0.1781  0.3812
  476SOL     OW 1901   1.840   3.202   0.741 -0.1218 -0.0786 -0.1121
  476SOL    HW2 1902   1.851   3.207   0.646  1.1419  0.9313  0.0725
  476SOL    HW3 1903   1.802   3.287   0.765 -0.8763 -0.5123  0.2262
  476SOL    MW4 1904   1.836   3.214   0.731 -0.0546 -0.0026 -0.0431
  477SOL     OW 1905   3.668   4.474   0.522  0.0428 -0.1270 -0.0633
  477SOL    HW2 1906   3.575   4.453   0.512 -0.1706  0.6912  0.1778
  477SOL    HW3 1907   3.680   4.556   0.474  0.3977  0.3564  0.8443
  477SOL    MW4 1908   3.657   4.482   0.514  0.0615  0.0447  0.0882
  478SOL     OW 1909   2.176   1.267   0.498  0.0355 -0.2883  0.0646
  478SOL    HW2 1910   2.131   1.336   0.450 -1.5842 -1.1375  0.3188
  478SOL    HW3 1911   2.127   1.258   0.579 -1.4452 -3.5015 -1.0708
  478SOL    MW4 1912   2.164   1.275   0.502 -0.3736 -0.8243 -0.0517
  479SOL     OW 1913   1.922   2.322   0.434 -0.2072 -0.0744  0.2179
  479SOL    HW2 1914   1.842   2.366   0.465 -0.2020 -1.2672  1.9587
  479SOL    HW3 1915   1.992   2.385   0.453 -0.6745  0.8483 -1.0340
  479SOL    MW4 1916   1.921   2.336   0.441 -0.2682 -0.1100  0.2824
  480SOL     OW 1917   0.378   2.306   0.316  0.1275 -0.0553 -0.2256
  480SOL    HW2 1918   0.421   2.226   0.284 -1.0290 -0.5326 -0.6117
  480SOL    HW3 1919   0.446   2.351   0.366  1.1246 -0.7191 -0.9659
  480SOL    MW4 1920   0.393   2.301   0.318  0.1065 -0.2058 -0.3743
  481SOL     OW 1921   2.942   0.437   0.453 -0.0832  0.1132 -0.4141
  481SOL    HW2 1922   2.873   0.497   0.425 -1.5848 -0.8346  1.1717
  481SOL    HW3 1923   2.957   0.458   0.545  1.5907  0.1618 -0.6851
  481SOL    MW4 1924   2.935   0.447   0.461 -0.0605 -0.0054 -0.2406
  482SOL     OW 1925   4.058   2.693   0.886 -0.0652 -0.0010 -0.0930
  482SOL    HW2 1926   3.979   2.714   0.836  0.1556  0.0376 -0.4280
  482SOL    HW3 1927   4.129   2.737   0.839 -0.0478  1.2163  1.0747
  482SOL    MW4 1928   4.057   2.701   0.873 -0.0338  0.1647  0.0169
  483SOL     OW 1929   1.334   2.451   0.723  0.0877 -0.0443 -0.2171
  483SOL    HW2 1930   1.271   2.380   0.738  0.9338 -1.2323 -2.0810
  483SOL    HW3 1931   1.417   2.416   0.754  0.2475  0.6846  0.1902
  483SOL    MW4 1932   1.337   2.437   0.729  0.2204 -0.1048 -0.4092
  484SOL     OW 1933   0.882   3.230   0.711  0.0667 -0.4728 -0.0746
  484SOL    HW2 1934   0.881   3.199   0.621  1.1188  0.3238 -0.3616
  484SOL    HW3 1935   0.815   3.177   0.755  1.8490 -3.2099 -0.5353
  484SOL    MW4 1936   0.873   3.219   0.705  0.4406 -0.7288 -0.1732
  485SOL     OW 1937   0.895   0.122   0.735  0.1138  0.6218  0.1000
  485SOL    HW2 1938   0.832   0.069   0.784 -0.3035  1.7429  0.7940
  485SOL    HW3 1939   0.889   0.209   0.774  2.9508  0.4721  0.9483
  485SOL    MW4 1940   0.886   0.127   0.747  0.4331  0.7500  0.3035
  486SOL     OW 1941   0.282   4.392   0.560 -0.0541  0.1825  0.0936
  486SOL    HW2 1942   0.350   4.459   0.550  0.1174 -0.3002 -2.0624
  486SOL    HW3 1943   0.270   4.385   0.655  1.7886  1.3817  0.4407
  486SOL    MW4 1944   0.289   4.400   0.571  0.2117  0.2770 -0.1451
  487SOL     OW 1945   3.182   1.645   0.708  0.1947 -0.1583  0.0091
  487SOL    HW2 1946   3.251   1.609   0.764  0.0114  0.2864  0.5323
  487SOL    HW3 1947   3.154   1.724   0.754 -1.4969 -0.9745  0.3913
  487SOL    MW4 1948   3.188   1.651   0.721 -0.0527 -0.2073  0.1286
  488SOL     OW 1949   3.094   0.050   0.465  0.2267  0.2374  0.0621
  488SOL    HW2 1950   3.097  -0.043   0.443  0.5424 -0.1869  1.8024
  488SOL    HW3 1951   3.099   0.052   0.561 -1.4041  1.9727  0.1412
  488SOL    MW4 1952   3.095   0.038   0.475  0.0532  0.4104  0.3021
  489SOL     OW 1953   0.417   0.387   0.856  0.1335 -0.2836 -0.8376
  489SOL    HW2 1954   0.434   0.294   0.844  1.4369 -0.7335  3.6767
  489SOL    HW3 1955   0.494   0.430   0.818  2.0162 -1.3858  1.5324
  489SOL    MW4 1956   0.430   0.381   0.849  0.5538 -0.4884  0.0707
  490SOL     OW 1957   0.158   0.006   1.093  0.4563  0.0053  0.0404
  490SOL    HW2 1958   0.239   0.049   1.120  1.6607 -0.7755 -2.1637
  490SOL    HW3 1959   0.171  -0.010   0.999 -2.2538 -0.1224 -0.3368
  490SOL    MW4 1960   0.170   0.010   1.084  0.2576 -0.1146 -0.3001
  491SOL     OW 1961   4.434   0.128   1.237  0.2803 -0.1172 -0.4444
  491SOL    HW2 1962   4.365   0.093   1.181 -0.4776 -3.0969  2.2296
  491SOL    HW3 1963   4.515   0.091   1.200 -0.0617 -0.8166 -0.5051
  491SOL    MW4 1964   4.436   0.118   1.225  0.1351 -0.6026 -0.0996
  492SOL     OW 1965   4.469   0.377   1.097 -0.3658  0.4348 -0.0207
  492SOL    HW2 1966   4.398   0.430   1.132 -0.8502 -0.3477  0.2095
  492SOL    HW3 1967   4.459   0.292   1.140  0.1992  0.0574 -0.6211
  492SOL    MW4 1968   4.458   0.372   1.107 -0.3551  0.2818 -0.0696
  493SOL     OW 1969   0.177   0.521   1.256 -0.1601 -0.0303  0.5151
  493SOL    HW2 1970   0.184   0.609   1.217 -0.2223  0.3433  1.3421
  493SOL    HW3 1971   0.105   0.480   1.209 -0.4888  0.5578  0.4984
  493SOL    MW4 1972   0.168   0.528   1.245 -0.2117  0.0966  0.6220
  494SOL     OW 1973   0.219   0.758   1.113  0.0835  0.0309 -0.9174
  494SOL    HW2 1974   0.294   0.803   1.150  0.1931 -0.9237  0.0524
  494SOL    HW3 1975   0.143   0.797   1.156  0.2909 -2.1680  1.5756
  494SOL    MW4 1976   0.219   0.769   1.124  0.1254 -0.3852 -0.4606
  495SOL     OW 1977   4.487   0.894   1.207 -0.1109  0.4589  0.0883
  495SOL    HW2 1978   4.501   0.905   1.301  1.9056  2.0420 -0.3696
  495SOL    HW3 1979   4.395   0.871   1.199  0.0273 -1.0794  2.5578
  495SOL    MW4 1980   4.477   0.892   1.218  0.1734  0.4648  0.3537
  496SOL     OW 1981   0.017   1.184   1.141  0.3658 -0.0027 -0.3933
  496SOL    HW2 1982  -0.065   1.230   1.159  0.3464 -0.4337  0.6378
  496SOL    HW3 1983  -0.002   1.092   1.160  1.2092 -0.0439  0.2949
  496SOL    MW4 1984   0.004   1.178   1.146  0.4745 -0.0650 -0.1665
  497SOL     OW 1985   0.264   1.316   1.212 -0.1058 -0.1440  0.0012
  497SOL    HW2 1986   0.341   1.262   1.192  0.3947  0.7463 -0.5093
  497SOL    HW3 1987   0.189   1.262   1.185  0.3607 -0.8484  0.1094
  497SOL    MW4 1988   0.264   1.302   1.206  0.0218 -0.1195 -0.0519
  498SOL     OW 1989   0.244   1.572   1.126 -0.2547 -0.7330  0.0828
  498SOL    HW2 1990   0.241   1.482   1.159  1.2587 -1.1444 -0.8665
  498SOL    HW3 1991   0.215   1.566   1.036 -0.5293 -0.2086  0.1330
  498SOL    MW4 1992   0.240   1.559   1.119 -0.0912 -0.7181 -0.0358
  499SOL     OW 1993   0.000   1.684   1.252  0.1183  0.2325 -0.8368
  499SOL    HW2 1994  -0.010   1.771   1.214  1.9274  1.1584  0.7285
  499SOL    HW3 1995   0.068   1.643   1.198 -0.6304 -0.1915 -1.4818
  499SOL    MW4 1996   0.008   1.690   1.240  0.2582  0.2987 -0.7154
  500SOL     OW 1997   4.455   1.943   1.128  0.4210  0.1257 -0.5038
  500SOL    HW2 1998   4.395   2.003   1.172  1.9099  0.5361  1.0272
  500SOL    HW3 1999   4.439   1.956   1.035 -1.0217  1.0724 -0.1366
  500SOL    MW4 2000   4.445   1.953   1.122  0.4271  0.3048 -0.2534
  501SOL     OW 2001   0.203   2.060   1.259 -0.1676  0.1597 -0.2322
  501SOL    HW2 2002   0.210   2.146   1.218  0.7019 -0.2294 -0.9123
  501SOL    HW3 2003   0.132   2.016   1.211 -0.5059  0.4347  0.0132
  501SOL    MW4 2004   0.194   2.065   1.247 -0.0975  0.1446 -0.2896
  502SOL     OW 2005   0.234   2.323   1.130  0.4935  0.2542  0.3025
  502SOL    HW2 2006   0.311   2.378   1.147  0.9224 -0.8188  1.9667
  502SOL    HW3 2007   0.160   2.379   1.152  0.8908  0.5165  1.0209
  502SOL    MW4 2008   0.235   2.338   1.135  0.6025  0.1473  0.6169
  503SOL     OW 2009   4.489   2.468   1.189 -0.4588  0.0820  0.0063
  503SOL    HW2 2010   4.474   2.451   1.282  0.5563 -1.8741 -0.1680
  503SOL    HW3 2011   4.415   2.425   1.145 -0.5078  0.3243 -0.1508
  503SOL    MW4 2012   4.477   2.460   1.196 -0.3314 -0.1441 -0.0375
  504SOL     OW 2013   4.459   2.727   1.106 -0.1535  0.2317 -0.7386
  504SOL    HW2 2014   4.402   2.769   1.170 -0.1177  1.2388 -1.3497
  504SOL    HW3 2015   4.479   2.642   1.144 -1.2106  0.2846 -0.0331
  504SOL    MW4 2016   4.454   2.721   1.119 -0.2882  0.3716 -0.7261
  505SOL     OW 2017   0.182   2.839   1.230 -0.0376  0.0426  0.1667
  505SOL    HW2 2018   0.164   2.835   1.324  0.3727 -1.0122  0.2056
  505SOL    HW3 2019   0.107   2.795   1.190  0.8545 -1.4738  0.1370
  505SOL    MW4 2020   0.170   2.833   1.237  0.1342 -0.2966  0.1679
  506SOL     OW 2021   0.220   3.088   1.120  0.1769  0.1411 -0.3079
  506SOL    HW2 2022   0.306   3.106   1.157  0.5793 -1.7169 -0.3169
  506SOL    HW3 2023   0.201   2.998   1.145 -1.4988  0.3332 -0.8343
  506SOL    MW4 2024   0.229   3.079   1.128  0.0089 -0.0787 -0.3786
  507SOL     OW 2025   0.003   3.256   1.248  0.5711 -0.0579  0.3576
  507SOL    HW2 2026  -0.081   3.211   1.234  0.8465  0.0641 -1.8755
  507SOL    HW3 2027   0.063   3.214   1.186  1.5163  1.5471  0.1552
  507SOL    MW4 2028  -0.000   3.244   1.238  0.7321  0.1700  0.0363
  508SOL     OW 2029   4.489   3.516   1.159 -0.6343 -0.2789  0.3405
  508SOL    HW2 2030   4.488   3.427   1.195 -0.1943 -0.5734 -0.3805
  508SOL    HW3 2031   4.502   3.504   1.065 -1.1817  0.5234  0.1605
  508SOL    MW4 2032   4.490   3.503   1.151 -0.6485 -0.2119  0.2216
  509SOL     OW 2033   0.237   3.632   1.242 -0.5847  0.1205 -0.0648
  509SOL    HW2 2034   0.242   3.624   1.338 -1.9217  1.4203  0.1323
  509SOL    HW3 2035   0.149   3.603   1.220 -0.8462  1.4052 -0.7267
  509SOL    MW4 2036   0.226   3.627   1.252 -0.7956  0.4615 -0.1262
  510SOL     OW 2037   0.229   3.884   1.119  0.2802 -0.1813 -0.4809
  510SOL    HW2 2038   0.158   3.922   1.171 -0.4270 -0.0209 -1.5629
  510SOL    HW3 2039   0.240   3.796   1.156  1.5528  0.8330  1.6598
  510SOL    MW4 2040   0.221   3.877   1.131  0.3548 -0.0263 -0.3412
  511SOL     OW 2041   0.008   4.061   1.238  0.2818 -0.8778  0.1465
  511SOL    HW2 2042  -0.005   4.042   1.331  0.8237 -2.1506 -0.0257
  511SOL    HW3 2043  -0.061   4.011   1.194 -0.4700  0.3532 -0.0875
  511SOL    MW4 2044  -0.003   4.052   1.245  0.2541 -0.8833  0.0929
  512SOL     OW 2045   4.471   4.324   1.168  0.3745 -0.1746 -0.6723
  512SOL    HW2 2046   4.561   4.350   1.189  0.7141 -2.2859  0.5991
  512SOL    HW3 2047   4.467   4.231   1.188 -1.9475 -0.2503 -1.2846
  512SOL    MW4 2048   4.482   4.315   1.173  0.1130 -0.4631 -0.5853
  513SOL     OW 2049   0.256   4.426   1.202  0.5474  0.4783  0.3797
  513SOL    HW2 2050   0.249   4.419   1.297  0.3238  0.6467  0.3762
  513SOL    HW3 2051   0.223   4.513   1.182 -2.4485 -0.7401 -0.1522
  513SOL    MW4 2052   0.251   4.437   1.212  0.1226  0.3397  0.3091
  514SOL     OW 2053   0.648   0.002   1.183  0.3883  0.0958 -0.2494
  514SOL    HW2 2054   0.727   0.055   1.186  0.4579 -0.0216 -0.0161
  514SOL    HW3 2055   0.677  -0.087   1.205  0.0253  0.2484  0.8572
  514SOL    MW4 2056   0.662  -0.003   1.186  0.3496  0.1005 -0.0726
  515SOL     OW 2057   0.387   0.113   1.220  0.4465  0.2185  0.5559
  515SOL    HW2 2058   0.382   0.201   1.185  0.6617  0.2517  0.6050
  515SOL    HW3 2059   0.474   0.082   1.194 -0.3380 -0.6747 -1.1073
  515SOL    MW4 2060   0.398   0.120   1.212  0.3714  0.1051  0.3430
  516SOL     OW 2061   0.376   0.381   1.129  0.1684  0.5300  0.3060
  516SOL    HW2 2062   0.293   0.419   1.159 -1.0612 -0.9103 -1.1322
  516SOL    HW3 2063   0.380   0.403   1.036  2.2743  2.0542  0.7098
  516SOL    MW4 2064   0.365   0.389   1.121  0.2840  0.5410  0.1695
  517SOL     OW 2065   0.613   0.476   1.225 -0.3823 -0.4470 -0.0300
  517SOL    HW2 2066   0.612   0.571   1.213  0.9623 -0.4982 -0.5932
  517SOL    HW3 2067   0.529   0.446   1.189 -1.2564  0.6230  1.0735
  517SOL    MW4 2068   0.602   0.484   1.219 -0.3202 -0.3126  0.0413
  518SOL     OW 2069   0.653   0.765   0.890 -0.0005 -0.1942 -0.9733
  518SOL    HW2 2070   0.598   0.831   0.848 -0.0480 -0.0061 -0.6209
  518SOL    HW3 2071   0.741   0.783   0.858 -0.2062 -0.7716 -1.8818
  518SOL    MW4 2072   0.657   0.776   0.880 -0.0339 -0.2456 -1.0467
  519SOL     OW 2073   0.406   0.887   1.251  0.4005  0.3472  0.8333
  519SOL    HW2 2074   0.411   0.885   1.346 -0.7149  2.0370  0.9425
  519SOL    HW3 2075   0.409   0.980   1.229  0.7234 -0.0310 -0.7855
  519SOL    MW4 2076   0.407   0.899   1.260  0.2960  0.5203  0.6341
  520SOL     OW 2077   0.472   1.157   1.162 -0.3834  0.1808 -0.1784
  520SOL    HW2 2078   0.550   1.209   1.184 -0.3978  0.2391 -0.2649
  520SOL    HW3 2079   0.462   1.168   1.068 -0.1899 -0.2534 -0.2512
  520SOL    MW4 2080   0.481   1.165   1.153 -0.3597  0.1312 -0.1994
  521SOL     OW 2081   0.698   1.292   1.241 -0.2574 -0.2819 -0.0885
  521SOL    HW2 2082   0.764   1.240   1.195 -0.6867 -2.1494  1.3077
  521SOL    HW3 2083   0.710   1.381   1.209  1.0880 -1.0890 -1.9184
  521SOL    MW4 2084   0.708   1.297   1.231 -0.1365 -0.6348 -0.1457
  522SOL     OW 2085   0.714   1.536   1.077 -0.0267 -0.1082 -0.1244
  522SOL    HW2 2086   0.793   1.570   1.119  0.4153  0.3562 -1.3330
  522SOL    HW3 2087   0.642   1.585   1.117  0.4066  0.4770 -0.0641
  522SOL    MW4 2088   0.715   1.547   1.088  0.0888  0.0303 -0.2759
  523SOL     OW 2089   0.484   1.679   1.193 -0.3605 -0.4996  0.2726
  523SOL    HW2 2090   0.487   1.677   1.288 -0.7816 -0.2394  0.2943
  523SOL    HW3 2091   0.409   1.624   1.170  1.5249 -3.0104 -0.0389
  523SOL    MW4 2092   0.474   1.672   1.202 -0.1673 -0.7965  0.2344
  524SOL     OW 2093   0.419   1.951   1.131 -0.2181  0.5068  0.1027
  524SOL    HW2 2094   0.428   1.859   1.155  0.3281 -0.1635 -2.5680
  524SOL    HW3 2095   0.342   1.981   1.180 -0.8942 -1.5831  0.3629
  524SOL    MW4 2096   0.410   1.943   1.141 -0.2353  0.1427 -0.2154
  525SOL     OW 2097   0.672   2.067   1.198  0.1475  0.1952  0.0503
  525SOL    HW2 2098   0.668   2.087   1.292 -0.9209 -1.2365  0.3244
  525SOL    HW3 2099   0.585   2.032   1.177  0.2747  0.7981 -1.5521
  525SOL    MW4 2100   0.660   2.065   1.208  0.0233  0.0858 -0.1249
  526SOL     OW 2101   0.694   2.328   1.104 -0.0893  0.7213  0.1087
  526SOL    HW2 2102   0.618   2.382   1.127 -1.2671 -0.8459  0.0016
  526SOL    HW3 2103   0.675   2.242   1.143  2.7227  0.9236  2.1035
  526SOL    MW4 2104   0.681   2.324   1.112  0.1263  0.5412  0.3578
  527SOL     OW 2105   0.477   2.462   1.183  0.6335  0.1820 -0.2354
  527SOL    HW2 2106   0.457   2.451   1.276  1.2318 -0.2037 -0.1523
  527SOL    HW3 2107   0.470   2.556   1.168  0.3031  0.2201  0.1446
  527SOL    MW4 2108   0.473   2.473   1.193  0.6689  0.1362 -0.1743
  528SOL     OW 2109   0.447   2.737   1.161  0.2969  0.2637  0.3830
  528SOL    HW2 2110   0.365   2.780   1.186  0.7198  0.3577  1.6108
  528SOL    HW3 2111   0.442   2.732   1.065 -1.5816 -0.6125  0.4887
  528SOL    MW4 2112   0.435   2.742   1.152  0.1048  0.1605  0.5589
  529SOL     OW 2113   0.691   2.838   1.231 -0.0738  0.2266 -0.2443
  529SOL    HW2 2114   0.696   2.917   1.176 -0.7252 -0.7238 -1.7037
  529SOL    HW3 2115   0.610   2.795   1.204  0.1956 -0.8712  0.6556
  529SOL    MW4 2116   0.681   2.843   1.220 -0.1242 -0.0436 -0.3182
  530SOL     OW 2117   0.682   3.079   1.111  0.2300  0.7836 -0.1987
  530SOL    HW2 2118   0.761   3.124   1.141 -0.0825  0.9194  0.4211
  530SOL    HW3 2119   0.681   3.093   1.016 -0.0756  2.4085  0.0308
  530SOL    MW4 2120   0.692   3.087   1.102  0.1484  1.0159 -0.0867
  531SOL     OW 2121   0.458   3.192   1.223 -0.1515 -0.3628 -0.2265
  531SOL    HW2 2122   0.458   3.282   1.191  0.1483 -0.3028 -0.0571
  531SOL    HW3 2123   0.542   3.156   1.194  0.1810 -0.2675  0.5969
  531SOL    MW4 2124   0.469   3.199   1.215 -0.0681 -0.3423 -0.0955
  532SOL     OW 2125   0.424   3.450   1.139  0.2830  0.1457  0.0352
  532SOL    HW2 2126   0.512   3.480   1.160  1.0737 -1.5436 -0.6836
  532SOL    HW3 2127   0.366   3.510   1.185  1.7943  1.6569  0.0336
  532SOL    MW4 2128   0.428   3.462   1.148  0.5867  0.1222 -0.0599
  533SOL     OW 2129   0.685   3.596   1.192  0.0156 -0.4265  0.1350
  533SOL    HW2 2130   0.686   3.586   1.287 -2.0347 -0.9078  0.1320
  533SOL    HW3 2131   0.683   3.690   1.177  0.8818 -0.3392  0.5541
  533SOL    MW4 2132   0.685   3.607   1.202 -0.1406 -0.4784  0.1899
  534SOL     OW 2133   0.687   3.868   1.162  0.1480  0.3632  0.1974
  534SOL    HW2 2134   0.600   3.896   1.192 -0.8279 -2.8491  0.5499
  534SOL    HW3 2135   0.678   3.862   1.067  0.1360  0.4968  0.1900
  534SOL    MW4 2136   0.674   3.871   1.153  0.0177 -0.0430  0.2429
  535SOL     OW 2137   0.451   3.980   1.247 -0.0781 -0.0310 -0.1397
  535SOL    HW2 2138   0.457   4.074   1.227 -0.7525  0.2543  0.9939
  535SOL    HW3 2139   0.368   3.952   1.207 -0.4189  0.0944  0.4805
  535SOL    MW4 2140   0.441   3.989   1.239 -0.2120  0.0232  0.0917
  536SOL     OW 2141   0.462   4.256   1.166 -0.3728  0.6550 -0.3368
  536SOL    HW2 2142   0.543   4.301   1.188  0.2697 -0.2688 -0.7541
  536SOL    HW3 2143   0.393   4.318   1.188  0.3259  0.5601  2.2402
  536SOL    MW4 2144   0.463   4.270   1.172 -0.1958  0.5206 -0.0518
  537SOL     OW 2145   0.699   4.385   1.251 -0.0707  0.2663 -0.5731
  537SOL    HW2 2146   0.697   4.379   1.346  0.4781 -1.6073 -0.6546
  537SOL    HW3 2147   0.785   4.349   1.226 -0.2549  0.6258 -1.7743
  537SOL    MW4 2148   0.710   4.380   1.260 -0.0226  0.0666 -0.7424
  538SOL     OW 2149   1.110   4.656   1.081  0.3357 -0.2102  0.2217
  538SOL    HW2 2150   1.113   4.561   1.092 -2.0459 -0.4097 -0.6605
  538SOL    HW3 2151   1.107   4.669   0.986  0.9335  0.7561  0.3315
  538SOL    MW4 2152   1.110   4.645   1.070  0.1004 -0.1090  0.1198
  539SOL     OW 2153   0.891   0.133   1.182 -0.0813  0.2443  0.1540
  539SOL    HW2 2154   0.896   0.116   1.276  1.2729 -0.9350 -0.1149
  539SOL    HW3 2155   0.965   0.085   1.145 -0.2027  1.2602 -1.4410
  539SOL    MW4 2156   0.901   0.124   1.189  0.0814  0.2227 -0.0920
  540SOL     OW 2157   0.852   0.392   1.104  0.4822  0.1621  0.6542
  540SOL    HW2 2158   0.853   0.302   1.137  0.5703 -0.0369  0.1282
  540SOL    HW3 2159   0.772   0.430   1.140 -0.2771 -0.5637 -0.2240
  540SOL    MW4 2160   0.842   0.385   1.113  0.3936  0.0401  0.4689
  541SOL     OW 2161   1.113   0.524   1.181 -0.5462  0.0250  0.3409
  541SOL    HW2 2162   1.112   0.507   1.275 -0.8259 -0.6058  0.2300
  541SOL    HW3 2163   1.036   0.477   1.148  0.8960 -1.7723 -0.5367
  541SOL    MW4 2164   1.103   0.516   1.189 -0.3928 -0.2954  0.2105
  542SOL     OW 2165   1.074   0.800   1.093 -0.1435 -0.1361  0.4911
  542SOL    HW2 2166   0.998   0.824   1.145 -0.8493 -0.6886 -0.2848
  542SOL    HW3 2167   1.094   0.710   1.119  1.0416  0.4378  1.6385
  542SOL    MW4 2168   1.067   0.791   1.103 -0.0802 -0.1333  0.5401
  543SOL     OW 2169   0.858   0.889   1.239 -0.5233  0.2208 -0.0841
  543SOL    HW2 2170   0.858   0.966   1.181  1.5605  0.0645 -0.3240
  543SOL    HW3 2171   0.778   0.842   1.215 -0.0219  0.4850 -2.4391
  543SOL    MW4 2172   0.847   0.893   1.228 -0.1822  0.2351 -0.4265
  544SOL     OW 2173   0.891   1.138   1.126 -0.0012  0.1334  0.2553
  544SOL    HW2 2174   0.976   1.176   1.148 -0.9211  1.3384  1.8779
  544SOL    HW3 2175   0.883   1.148   1.031  1.6249  0.0675  0.1027
  544SOL    MW4 2176   0.901   1.144   1.117  0.0919  0.2837  0.4493
  545SOL     OW 2177   1.135   1.237   1.207 -0.0214  0.2032  0.1349
  545SOL    HW2 2178   1.130   1.241   1.302 -0.6043  1.5655  0.0528
  545SOL    HW3 2179   1.225   1.209   1.189  0.4206  0.9963  1.0655
  545SOL    MW4 2180   1.146   1.233   1.217 -0.0400  0.4876  0.2468
  546SOL     OW 2181   1.118   1.504   1.088 -0.2653 -0.2299  0.1584
  546SOL    HW2 2182   1.120   1.412   1.114  2.6565 -0.0480  0.7924
  546SOL    HW3 2183   1.111   1.502   0.992  1.3938 -1.1537  0.0462
  546SOL    MW4 2184   1.117   1.492   1.079  0.3391 -0.3278  0.2272
  547SOL     OW 2185   0.929   1.661   1.215 -0.0460  0.2597 -0.5567
  547SOL    HW2 2186   0.908   1.743   1.170  1.1802  0.9782  0.1296
  547SOL    HW3 2187   0.983   1.613   1.153  2.0745  1.4715  0.2798
  547SOL    MW4 2188   0.933   1.666   1.201  0.3955  0.5143 -0.3558
  548SOL     OW 2189   0.892   1.916   1.109 -0.1884 -0.2524 -0.1029
  548SOL    HW2 2190   0.969   1.960   1.145  0.8182 -1.6618 -0.4768
  548SOL    HW3 2191   0.819   1.951   1.159  0.9027 -0.2605  1.5411
  548SOL    MW4 2192   0.893   1.926   1.120  0.0884 -0.4394  0.0647
  549SOL     OW 2193   1.116   2.041   1.230  0.3835 -0.0097 -0.1746
  549SOL    HW2 2194   1.131   2.049   1.324  0.0428 -0.2684 -0.0968
  549SOL    HW3 2195   1.137   2.127   1.194  0.5824  0.0678  0.1293
  549SOL    MW4 2196   1.121   2.053   1.237  0.3648 -0.0336 -0.1242
  550SOL     OW 2197   1.140   2.314   1.118  0.3865  0.5016 -0.1968
  550SOL    HW2 2198   1.210   2.367   1.156  0.4746  1.0658 -1.1405
  550SOL    HW3 2199   1.060   2.348   1.159  0.5978  0.2780  0.4046
  550SOL    MW4 2200   1.139   2.326   1.129  0.4260  0.5465 -0.2420
  551SOL     OW 2201   0.919   2.432   1.239 -0.1799  0.8650  0.2890
  551SOL    HW2 2202   0.911   2.396   1.328 -1.5116 -0.2755 -0.2822
  551SOL    HW3 2203   0.851   2.387   1.189  2.2613 -0.4876 -1.9486
  551SOL    MW4 2204   0.909   2.421   1.244 -0.0335  0.5360 -0.0816
  552SOL     OW 2205   0.898   2.700   1.137  0.0414  0.1244 -0.2986
  552SOL    HW2 2206   0.901   2.627   1.198  0.2854 -0.1385 -0.6267
  552SOL    HW3 2207   0.825   2.754   1.168  0.3417  0.1377  0.3878
  552SOL    MW4 2208   0.889   2.698   1.149  0.1132  0.0915 -0.2513
  553SOL     OW 2209   1.129   2.839   1.201 -0.4407  0.3630 -0.2295
  553SOL    HW2 2210   1.129   2.846   1.296 -1.9775 -0.1072 -0.1741
  553SOL    HW3 2211   1.047   2.795   1.181  0.7558 -1.3096 -1.6398
  553SOL    MW4 2212   1.118   2.834   1.211 -0.4856  0.0803 -0.4082
  554SOL     OW 2213   1.131   3.088   1.073  0.1549  0.0999 -0.1503
  554SOL    HW2 2214   1.130   2.996   1.099 -1.0373  0.1546  0.0081
  554SOL    HW3 2215   1.120   3.086   0.978 -0.7887  0.1202 -0.0389
  554SOL    MW4 2216   1.130   3.076   1.064 -0.1269  0.1098 -0.1147
  555SOL     OW 2217   0.917   3.212   1.225  0.0102  0.1243 -0.3899
  555SOL    HW2 2218   0.913   3.297   1.182 -1.5270 -0.5771 -1.6519
  555SOL    HW3 2219   0.989   3.166   1.182 -0.1526  0.2082 -0.7463
  555SOL    MW4 2220   0.926   3.217   1.214 -0.2141  0.0428 -0.6035
  556SOL     OW 2221   0.907   3.461   1.107 -0.1572 -0.2132 -0.6006
  556SOL    HW2 2222   0.827   3.508   1.129  0.5277  0.5697  0.2273
  556SOL    HW3 2223   0.926   3.487   1.016  0.2003  1.1066 -0.1621
  556SOL    MW4 2224   0.899   3.471   1.098 -0.0197  0.0642 -0.4335
  557SOL     OW 2225   1.128   3.596   1.246 -0.2864 -0.1589  0.4346
  557SOL    HW2 2226   1.213   3.568   1.211 -0.1625  1.8320 -0.9217
  557SOL    HW3 2227   1.064   3.568   1.181 -0.5889 -0.8490  1.0198
  557SOL    MW4 2228   1.131   3.589   1.233 -0.3100  0.0127  0.3329
  558SOL     OW 2229   1.166   3.880   1.169 -0.0222  0.0508  0.1975
  558SOL    HW2 2230   1.090   3.933   1.191  0.2141  0.3568  0.2832
  558SOL    HW3 2231   1.147   3.794   1.206  0.0065  0.3347  0.8820
  558SOL    MW4 2232   1.154   3.875   1.177  0.0128  0.1287  0.2991
  559SOL     OW 2233   0.934   4.014   1.251  0.4052 -0.0960 -0.1806
  559SOL    HW2 2234   0.948   4.006   1.346  1.0779 -2.5570 -0.4620
  559SOL    HW3 2235   0.852   3.968   1.235 -1.2791  2.8909 -0.4163
  559SOL    MW4 2236   0.925   4.007   1.261  0.2717 -0.0266 -0.2488
  560SOL     OW 2237   0.899   4.258   1.108 -0.0466  0.0894  0.0172
  560SOL    HW2 2238   0.910   4.170   1.145 -2.6649 -0.9351 -1.5108
  560SOL    HW3 2239   0.894   4.244   1.013 -1.0999  1.7970 -0.2072
  560SOL    MW4 2240   0.900   4.244   1.100 -0.5311  0.1795 -0.2140
  561SOL     OW 2241   1.145   4.381   1.172  0.3035 -0.1505  0.2519
  561SOL    HW2 2242   1.141   4.387   1.268 -1.7655  0.3317  0.1670
  561SOL    HW3 2243   1.058   4.351   1.146  0.5693  0.5227 -1.5249
  561SOL    MW4 2244   1.133   4.378   1.181  0.0656  0.0020  0.0063
  562SOL     OW 2245   1.581   4.651   1.109 -0.1751 -0.6962 -0.3497
  562SOL    HW2 2246   1.653   4.699   1.150  0.1760 -1.0964 -0.4910
  562SOL    HW3 2247   1.587   4.563   1.146  0.0341 -1.0137 -1.1160
  562SOL    MW4 2248   1.591   4.646   1.119 -0.1012 -0.7909 -0.4694
  563SOL     OW 2249   1.334   0.079   1.200 -0.2103 -0.0948  0.5643
  563SOL    HW2 2250   1.407   0.033   1.159 -0.3747 -0.6097  0.8394
  563SOL    HW3 2251   1.256   0.042   1.158 -0.3084  0.5410  0.1845
  563SOL    MW4 2252   1.333   0.068   1.189 -0.2449 -0.0789  0.5505
  564SOL     OW 2253   1.342   0.352   1.134 -0.1047  0.1386  0.3706
  564SOL    HW2 2254   1.327   0.264   1.168  0.4947  0.1237  0.6109
  564SOL    HW3 2255   1.259   0.397   1.145  0.1678  0.2515  2.2057
  564SOL    MW4 2256   1.329   0.346   1.140  0.0103  0.1515  0.6444
  565SOL     OW 2257   1.570   0.478   1.199 -0.1251  0.0858 -0.1806
  565SOL    HW2 2258   1.550   0.568   1.171 -0.9092  0.5865  1.9072
  565SOL    HW3 2259   1.496   0.426   1.168 -0.8082  0.5735  0.6124
  565SOL    MW4 2260   1.557   0.483   1.191 -0.3187  0.2162  0.1995
  566SOL     OW 2261   1.544   0.742   1.089 -0.0608 -0.0237 -0.0126
  566SOL    HW2 2262   1.623   0.774   1.132  0.4407  0.9878 -1.6450
  566SOL    HW3 2263   1.553   0.770   0.998 -1.6400 -1.1181 -0.5318
  566SOL    MW4 2264   1.555   0.750   1.083 -0.2030 -0.0347 -0.2965
  567SOL     OW 2265   1.328   0.859   1.219  0.1892  0.5428 -0.3072
  567SOL    HW2 2266   1.398   0.817   1.169  0.7918  1.0942  0.0860
  567SOL    HW3 2267   1.249   0.843   1.166  0.7220  0.5648 -1.1178
  567SOL    MW4 2268   1.327   0.851   1.205  0.3390  0.6185 -0.3623
  568SOL     OW 2269   1.385   1.133   1.130  0.4459  0.0950  0.3093
  568SOL    HW2 2270   1.395   1.045   1.168  0.7917  0.2787  0.6543
  568SOL    HW3 2271   1.357   1.117   1.040  1.2559 -0.3897  0.1327
  568SOL    MW4 2272   1.383   1.119   1.123  0.5984  0.0553  0.3316
  569SOL     OW 2273   1.634   1.240   1.231  0.2072 -0.2526 -0.1103
  569SOL    HW2 2274   1.716   1.201   1.203 -0.3280 -1.1635 -0.4247
  569SOL    HW3 2275   1.567   1.194   1.181 -0.4797  0.6316 -0.0192
  569SOL    MW4 2276   1.636   1.229   1.221  0.0459 -0.2561 -0.1398
  570SOL     OW 2277   1.551   1.513   1.153 -0.0259 -0.0464 -0.2336
  570SOL    HW2 2278   1.621   1.577   1.164 -1.4498  1.2941  1.2121
  570SOL    HW3 2279   1.591   1.430   1.179  1.1736  0.6147  0.0912
  570SOL    MW4 2280   1.566   1.510   1.158 -0.0555  0.2177 -0.0000
  571SOL     OW 2281   1.314   1.621   1.231  0.5705 -0.1480  0.1380
  571SOL    HW2 2282   1.395   1.575   1.208  0.2741 -0.5874 -0.0181
  571SOL    HW3 2283   1.244   1.567   1.195  0.2506  0.7415 -0.6036
  571SOL    MW4 2284   1.316   1.608   1.223  0.4892 -0.0886  0.0196
  572SOL     OW 2285   1.549   2.022   1.224 -0.3571  0.1967  0.0553
  572SOL    HW2 2286   1.544   2.117   1.208 -0.1693 -0.0191 -1.4057
  572SOL    HW3 2287   1.470   1.987   1.182  0.3739 -0.4501 -0.7989
  572SOL    MW4 2288   1.538   2.030   1.216 -0.2359  0.0829 -0.2502
  573SOL     OW 2289   1.333   1.885   1.112 -0.0466  0.3325  0.1287
  573SOL    HW2 2290   1.259   1.928   1.156 -1.4248 -0.0306 -1.7892
  573SOL    HW3 2291   1.332   1.796   1.148  1.4079  1.2058  2.4119
  573SOL    MW4 2292   1.323   1.879   1.123 -0.0366  0.3998  0.1769
  574SOL     OW 2293   1.556   2.301   1.117 -0.4703 -0.9026 -0.2671
  574SOL    HW2 2294   1.482   2.358   1.137  0.0694 -0.4022  0.3155
  574SOL    HW3 2295   1.560   2.301   1.021 -0.5341 -0.0335 -0.2797
  574SOL    MW4 2296   1.546   2.309   1.107 -0.4075 -0.7219 -0.1919
  575SOL     OW 2297   1.383   2.487   1.206  0.3102 -0.1933 -0.1234
  575SOL    HW2 2298   1.342   2.485   1.293 -2.0007 -0.3732 -1.1822
  575SOL    HW3 2299   1.371   2.578   1.177 -1.6851 -0.8606 -1.4974
  575SOL    MW4 2300   1.376   2.499   1.214 -0.2580 -0.3051 -0.4444
  576SOL     OW 2301   1.365   2.731   1.081  0.5938 -0.1839 -0.0472
  576SOL    HW2 2302   1.436   2.764   1.136  0.8912 -0.8358 -0.0350
  576SOL    HW3 2303   1.285   2.769   1.118  0.8328 -0.3222  0.6073
  576SOL    MW4 2304   1.363   2.740   1.093  0.6646 -0.2882  0.0407
  577SOL     OW 2305   1.563   2.837   1.221  0.0475 -0.1800  0.5983
  577SOL    HW2 2306   1.630   2.783   1.180 -0.1222 -0.4427  0.6655
  577SOL    HW3 2307   1.557   2.914   1.164 -0.6076 -0.8209 -0.2132
  577SOL    MW4 2308   1.571   2.840   1.208 -0.0613 -0.2992  0.5001
  578SOL     OW 2309   1.581   3.078   1.069 -0.2060  0.2894 -0.0919
  578SOL    HW2 2310   1.655   3.129   1.101 -0.1898 -0.1130  0.5202
  578SOL    HW3 2311   1.504   3.126   1.098 -0.1876  1.0280 -1.2487
  578SOL    MW4 2312   1.581   3.091   1.077 -0.2014  0.3338 -0.1637
  579SOL     OW 2313   1.351   3.223   1.214 -0.0015 -0.2667  0.3110
  579SOL    HW2 2314   1.350   3.218   1.310 -0.9852  0.8001  0.3809
  579SOL    HW3 2315   1.268   3.183   1.188  0.4758 -0.9732 -0.1256
  579SOL    MW4 2316   1.340   3.217   1.223 -0.0683 -0.2192  0.2626
  580SOL     OW 2317   1.334   3.482   1.101 -0.0282  0.1531 -0.2508
  580SOL    HW2 2318   1.347   3.399   1.146 -0.6419  0.4107  0.4148
  580SOL    HW3 2319   1.335   3.460   1.008  0.5678 -0.4831 -0.0930
  580SOL    MW4 2320   1.336   3.468   1.095 -0.0306  0.1031 -0.1422
  581SOL     OW 2321   1.556   3.603   1.185  0.1328  0.2268  0.3091
  581SOL    HW2 2322   1.568   3.696   1.163 -0.0378  0.4013  0.9465
  581SOL    HW3 2323   1.472   3.580   1.145  0.7994 -0.0199 -1.0057
  581SOL    MW4 2324   1.547   3.612   1.176  0.1983  0.2173  0.2197
  582SOL     OW 2325   1.614   3.872   1.095  0.1112  0.2334 -0.3473
  582SOL    HW2 2326   1.536   3.920   1.124  1.3510  1.5974  0.8561
  582SOL    HW3 2327   1.609   3.873   1.000 -0.1135  2.4177 -0.3389
  582SOL    MW4 2328   1.603   3.879   1.087  0.2451  0.7016 -0.1874
  583SOL     OW 2329   1.392   4.002   1.213  0.0058 -0.2880  0.6318
  583SOL    HW2 2330   1.394   4.087   1.169  1.7950  0.1235  1.4518
  583SOL    HW3 2331   1.309   3.962   1.185 -0.5605  1.4523 -0.2494
  583SOL    MW4 2332   1.381   4.008   1.203  0.1672 -0.0041  0.6237
  584SOL     OW 2333   1.380   4.250   1.093 -0.0905 -0.1123  0.2809
  584SOL    HW2 2334   1.307   4.296   1.134 -0.8915 -0.8867 -0.2730
  584SOL    HW3 2335   1.373   4.272   1.000 -0.9266 -1.9374 -0.1048
  584SOL    MW4 2336   1.370   4.259   1.086 -0.3065 -0.4552  0.1569
  585SOL     OW 2337   1.608   4.395   1.226 -0.2009  0.0392  0.1615
  585SOL    HW2 2338   1.610   4.370   1.318 -1.4467 -0.0101  0.1842
  585SOL    HW3 2339   1.534   4.346   1.189  0.6834 -0.4373 -1.0138
  585SOL    MW4 2340   1.599   4.385   1.233 -0.2486 -0.0302  0.0095
  586SOL     OW 2341   2.002   4.655   1.108 -0.5581 -0.1030 -0.3540
  586SOL    HW2 2342   2.006   4.565   1.141  1.4987 -0.3295 -1.1836
  586SOL    HW3 2343   2.008   4.646   1.013  0.3364  0.9437 -0.4064
  586SOL    MW4 2344   2.003   4.642   1.100 -0.1687  0.0052 -0.4703
  587SOL     OW 2345   1.784   0.154   1.196 -0.5165 -0.1343 -0.0938
  587SOL    HW2 2346   1.811   0.236   1.154  0.1311  0.2500  1.0369
  587SOL    HW3 2347   1.856   0.093   1.177 -0.3085 -0.0125  0.2962
  587SOL    MW4 2348   1.797   0.157   1.188 -0.4036 -0.0675  0.1068
  588SOL     OW 2349   1.828   0.410   1.086 -0.1071 -0.1218  0.0923
  588SOL    HW2 2350   1.735   0.423   1.104  0.0277  0.6117  0.2674
  588SOL    HW3 2351   1.833   0.403   0.991 -0.4541 -1.0996  0.1389
  588SOL    MW4 2352   1.817   0.411   1.076 -0.1351 -0.1540  0.1216
  589SOL     OW 2353   2.456   0.463   1.205  0.2006 -0.4372 -0.2645
  589SOL    HW2 2354   2.441   0.456   1.299 -0.9961  1.2248 -0.3048
  589SOL    HW3 2355   2.377   0.427   1.165 -0.4536  1.2764 -0.5761
  589SOL    MW4 2356   2.444   0.457   1.212 -0.0436  0.0082 -0.3109
  590SOL     OW 2357   2.080   0.522   1.191  0.1542 -0.0451  0.0813
  590SOL    HW2 2358   2.077   0.495   1.283  0.0314 -0.5557 -0.0739
  590SOL    HW3 2359   2.008   0.475   1.149  1.0092 -0.8019 -0.5434
  590SOL    MW4 2360   2.070   0.512   1.198  0.2508 -0.2123 -0.0216
  591SOL     OW 2361   1.818   0.861   1.197 -0.2326  0.0542  0.4799
  591SOL    HW2 2362   1.827   0.864   1.292  2.0082  1.5001  0.2662
  591SOL    HW3 2363   1.903   0.829   1.166 -1.0040 -0.5767 -1.0398
  591SOL    MW4 2364   1.831   0.857   1.205 -0.0387  0.1618  0.2512
  592SOL     OW 2365   1.854   1.122   1.141 -0.1755  0.3913 -0.6900
  592SOL    HW2 2366   1.831   1.033   1.167  1.3401 -0.2065 -1.2906
  592SOL    HW3 2367   1.861   1.118   1.045  2.7643  0.3937 -0.5234
  592SOL    MW4 2368   1.852   1.109   1.132  0.4124  0.3127 -0.7472
  593SOL     OW 2369   2.070   1.260   1.226  0.1332  0.2852 -0.0866
  593SOL    HW2 2370   2.155   1.219   1.213  0.1799  0.9112 -1.8366
  593SOL    HW3 2371   2.009   1.205   1.178 -0.4485 -0.0974  1.0724
  593SOL    MW4 2372   2.073   1.247   1.218  0.0626  0.3173 -0.1646
  594SOL     OW 2373   2.013   1.534   1.193 -0.3235  0.0698 -0.4261
  594SOL    HW2 2374   2.031   1.443   1.217 -0.2767 -0.0668 -0.9925
  594SOL    HW3 2375   2.019   1.536   1.098  2.5832  1.2745 -0.2879
  594SOL    MW4 2376   2.016   1.522   1.184  0.0662  0.2107 -0.4826
  595SOL     OW 2377   1.772   1.655   1.193  0.2003 -0.0690 -0.1612
  595SOL    HW2 2378   1.783   1.746   1.165 -0.2173 -0.0105 -0.1278
  595SOL    HW3 2379   1.860   1.618   1.185  1.0036  1.0961  2.4867
  595SOL    MW4 2380   1.785   1.662   1.189  0.2512  0.0924  0.1926
  596SOL     OW 2381   1.773   1.908   1.108 -0.1301  0.5506  0.2069
  596SOL    HW2 2382   1.685   1.931   1.135 -0.4842 -0.6741  0.1513
  596SOL    HW3 2383   1.767   1.897   1.013 -0.0423 -0.0275  0.2651
  596SOL    MW4 2384   1.761   1.909   1.099 -0.1653  0.3127  0.2073
  597SOL     OW 2385   1.989   2.024   1.243 -0.3373 -0.4690  0.1643
  597SOL    HW2 2386   1.979   2.011   1.337  0.4042 -2.3740  0.0005
  597SOL    HW3 2387   1.910   1.986   1.205  0.1029 -1.1467 -0.0811
  597SOL    MW4 2388   1.977   2.018   1.250 -0.1814 -0.8097  0.1103
  598SOL     OW 2389   2.016   2.277   1.122 -0.2089 -0.0043  0.2534
  598SOL    HW2 2390   2.096   2.309   1.163 -0.0987  0.9152 -0.6645
  598SOL    HW3 2391   2.005   2.189   1.158  1.0926 -0.0597  0.5634
  598SOL    MW4 2392   2.025   2.269   1.132 -0.0227  0.1097  0.1732
  599SOL     OW 2393   1.780   2.424   1.222  0.2591 -0.3565  0.2980
  599SOL    HW2 2394   1.852   2.373   1.184  0.3103 -0.4828  0.5655
  599SOL    HW3 2395   1.701   2.379   1.193  0.1335  1.8614 -3.0767
  599SOL    MW4 2396   1.779   2.411   1.213  0.2493 -0.0805 -0.1120
  600SOL     OW 2397   1.789   2.688   1.110 -0.2398  0.3975 -0.1563
  600SOL    HW2 2398   1.786   2.595   1.134  0.7326  0.2863 -0.4330
  600SOL    HW3 2399   1.801   2.687   1.015  1.7122  0.7835  0.0740
  600SOL    MW4 2400   1.790   2.675   1.100  0.1460  0.4338 -0.1624
  601SOL     OW 2401   2.015   2.788   1.227 -0.3014  0.4227 -0.1468
  601SOL    HW2 2402   2.018   2.877   1.190 -0.4958  0.4074 -0.1968
  601SOL    HW3 2403   1.937   2.749   1.188 -0.4796  0.3897  0.2474
  601SOL    MW4 2404   2.005   2.795   1.217 -0.3506  0.4163 -0.1014
  602SOL     OW 2405   2.039   3.060   1.125  0.0810  0.1825 -0.1725
  602SOL    HW2 2406   1.973   3.127   1.143  0.0342 -0.2587  1.4364
  602SOL    HW3 2407   2.047   3.058   1.030 -1.7620  0.6906 -0.3585
  602SOL    MW4 2408   2.031   3.068   1.115 -0.1684  0.1913  0.0152
  603SOL     OW 2409   1.806   3.213   1.178 -0.2443  0.2036 -0.1542
  603SOL    HW2 2410   1.809   3.220   1.274 -0.3571  0.3298 -0.1593
  603SOL    HW3 2411   1.814   3.304   1.148 -0.9454  0.2339 -0.2486
  603SOL    MW4 2412   1.807   3.226   1.187 -0.3517  0.2243 -0.1673
  604SOL     OW 2413   1.800   3.472   1.115  0.0262 -0.0498 -0.5687
  604SOL    HW2 2414   1.872   3.524   1.151  0.2191 -0.3837 -0.4667
  604SOL    HW3 2415   1.722   3.523   1.135  0.1057 -0.3682  0.5740
  604SOL    MW4 2416   1.799   3.486   1.122  0.0621 -0.1359 -0.4045
  605SOL     OW 2417   2.011   3.609   1.209  0.0622  0.5097  0.0528
  605SOL    HW2 2418   2.010   3.613   1.305 -1.5886  0.5388  0.0413
  605SOL    HW3 2419   2.084   3.550   1.189 -1.0186 -1.3445  1.3960
  605SOL    MW4 2420   2.021   3.602   1.219 -0.2982  0.2689  0.2285
  606SOL     OW 2421   1.991   3.862   1.102  0.4241  0.4456 -0.1505
  606SOL    HW2 2422   1.926   3.914   1.149  0.6036 -0.3836  1.0657
  606SOL    HW3 2423   1.982   3.774   1.139  0.4959 -0.2643 -1.7813
  606SOL    MW4 2424   1.981   3.857   1.113  0.4572  0.2425 -0.2052
  607SOL     OW 2425   1.817   4.054   1.226  0.1672 -0.4475 -0.1169
  607SOL    HW2 2426   1.836   4.048   1.319  0.8780 -0.0904 -0.2299
  607SOL    HW3 2427   1.741   3.998   1.213 -0.3924  0.0913  0.8000
  607SOL    MW4 2428   1.810   4.046   1.236  0.1871 -0.3293 -0.0108
  608SOL     OW 2429   1.787   4.268   1.041  0.1219  0.3790  0.1104
  608SOL    HW2 2430   1.809   4.187   1.087 -1.6716 -0.5238 -0.5741
  608SOL    HW3 2431   1.726   4.313   1.100 -1.0809 -0.1186 -0.7278
  608SOL    MW4 2432   1.782   4.263   1.055 -0.2735  0.1942 -0.0905
  609SOL     OW 2433   2.017   4.378   1.167  0.1793 -0.2315 -0.1581
  609SOL    HW2 2434   1.989   4.363   1.257  0.2640 -0.6458 -0.2014
  609SOL    HW3 2435   1.948   4.339   1.113  1.0070 -1.5731 -0.2643
  609SOL    MW4 2436   2.004   4.371   1.171  0.2996 -0.4631 -0.1778
  610SOL     OW 2437   2.451   4.611   1.150  0.6576  0.0189  0.1272
  610SOL    HW2 2438   2.526   4.658   1.187 -0.3343 -0.4490  2.8246
  610SOL    HW3 2439   2.380   4.675   1.151  0.2832 -0.3985  0.2787
  610SOL    MW4 2440   2.451   4.626   1.155  0.4774 -0.0979  0.5031
  611SOL     OW 2441   2.237   0.115   1.174 -0.4539  0.2160  0.3006
  611SOL    HW2 2442   2.255   0.195   1.124 -0.4865 -0.0861 -0.1967
  611SOL    HW3 2443   2.156   0.081   1.138 -0.4143 -0.0718  0.4782
  611SOL    MW4 2444   2.229   0.121   1.163 -0.4530  0.1382  0.2585
  612SOL     OW 2445   2.257   0.371   1.026 -0.4119 -0.3029 -0.7599
  612SOL    HW2 2446   2.179   0.415   1.059  0.7384  0.6816  0.7464
  612SOL    HW3 2447   2.252   0.379   0.931 -2.1351 -0.2716 -0.6738
  612SOL    MW4 2448   2.246   0.377   1.018 -0.4875 -0.1688 -0.5498
  613SOL     OW 2449   2.475   0.730   1.113  0.2016  0.3623 -0.3982
  613SOL    HW2 2450   2.488   0.641   1.145  0.2497  0.5218  0.0308
  613SOL    HW3 2451   2.457   0.720   1.020  0.2339 -0.0941 -0.3551
  613SOL    MW4 2452   2.474   0.717   1.105  0.2122  0.3231 -0.3359
  614SOL     OW 2453   2.270   0.880   1.214 -0.1408 -0.1074 -0.3180
  614SOL    HW2 2454   2.186   0.859   1.173 -0.6936  0.6410  0.3929
  614SOL    HW3 2455   2.332   0.818   1.176 -1.1400 -1.0857 -0.3875
  614SOL    MW4 2456   2.267   0.869   1.204 -0.3456 -0.1377 -0.2333
  615SOL     OW 2457   2.047   0.786   1.089  0.0458  0.2441 -0.1110
  615SOL    HW2 2458   2.025   0.764   0.998 -0.9881 -0.6385  0.3371
  615SOL    HW3 2459   2.066   0.701   1.129  1.0685  0.6908  0.3509
  615SOL    MW4 2460   2.047   0.772   1.082  0.0443  0.1866  0.0091
  616SOL     OW 2461   2.324   1.163   1.151 -0.2189 -0.2363 -0.1299
  616SOL    HW2 2462   2.393   1.195   1.209  0.1195 -0.6901 -0.2794
  616SOL    HW3 2463   2.308   1.073   1.180 -0.7514 -0.1277 -0.0928
  616SOL    MW4 2464   2.331   1.156   1.162 -0.2445 -0.2818 -0.1447
  617SOL     OW 2465   2.528   1.270   1.312 -0.0855 -0.6466 -0.7068
  617SOL    HW2 2466   2.607   1.230   1.276 -0.6621 -1.6640 -0.8583
  617SOL    HW3 2467   2.519   1.353   1.264  0.8454 -0.5541 -0.7335
  617SOL    MW4 2468   2.537   1.276   1.301 -0.0388 -0.7686 -0.7303
  618SOL     OW 2469   2.479   1.505   1.164 -0.1079 -0.0381  0.0145
  618SOL    HW2 2470   2.404   1.549   1.204 -1.4587 -1.0071 -1.3656
  618SOL    HW3 2471   2.481   1.539   1.075  1.3396  0.2578  0.1589
  618SOL    MW4 2472   2.469   1.515   1.157 -0.0951 -0.1269 -0.1486
  619SOL     OW 2473   2.253   1.648   1.252  0.1853 -0.3512  0.2306
  619SOL    HW2 2474   2.250   1.736   1.213  0.4058 -0.9475 -1.1514
  619SOL    HW3 2475   2.164   1.615   1.244 -0.4562  0.5968  2.8157
  619SOL    MW4 2476   2.241   1.655   1.246  0.1298 -0.3048  0.3894
  620SOL     OW 2477   2.255   1.917   1.170  0.0469  0.3712  0.5255
  620SOL    HW2 2478   2.193   1.971   1.219  1.0363  1.6629  0.3604
  620SOL    HW3 2479   2.225   1.923   1.079 -1.4727 -1.6017  0.8464
  620SOL    MW4 2480   2.243   1.925   1.164 -0.0231  0.2813  0.5461
  621SOL     OW 2481   2.479   2.050   1.250 -0.8775 -0.1083 -0.5519
  621SOL    HW2 2482   2.546   2.015   1.191 -1.6922 -0.5516 -1.2245
  621SOL    HW3 2483   2.397   2.012   1.218 -1.3159 -0.4722  0.9406
  621SOL    MW4 2484   2.477   2.040   1.238 -1.0429 -0.2148 -0.4438
  622SOL     OW 2485   2.503   2.333   1.125 -0.0092  0.1130 -0.2543
  622SOL    HW2 2486   2.500   2.246   1.166  1.9829 -0.2316 -0.7926
  622SOL    HW3 2487   2.491   2.316   1.032  2.1081  0.2248 -0.5634
  622SOL    MW4 2488   2.501   2.319   1.118  0.5330  0.0823 -0.3661
  623SOL     OW 2489   2.249   2.382   1.210  0.1805  0.2990  0.1391
  623SOL    HW2 2490   2.262   2.413   1.300  0.4558  1.6614 -0.3506
  623SOL    HW3 2491   2.338   2.367   1.177  0.0575 -0.8019  0.2851
  623SOL    MW4 2492   2.263   2.384   1.217  0.2006  0.3335  0.0937
  624SOL     OW 2493   2.262   2.668   1.154  0.0507 -0.2040  0.0444
  624SOL    HW2 2494   2.227   2.580   1.168  1.1061 -0.6730 -0.2299
  624SOL    HW3 2495   2.188   2.726   1.171 -0.8488 -1.1838 -0.4903
  624SOL    MW4 2496   2.248   2.664   1.158  0.0713 -0.3951 -0.0623
  625SOL     OW 2497   2.481   2.825   1.235 -0.0786 -0.1508  0.7029
  625SOL    HW2 2498   2.477   2.818   1.331 -1.0806 -0.5821  0.6418
  625SOL    HW3 2499   2.404   2.777   1.205 -0.0989  0.4937 -0.2960
  625SOL    MW4 2500   2.470   2.818   1.244 -0.2135 -0.1227  0.5631
  626SOL     OW 2501   2.513   3.099   1.155  0.1337  0.9515  0.2957
  626SOL    HW2 2502   2.429   3.140   1.178  0.9807  1.6285  2.2670
  626SOL    HW3 2503   2.506   3.009   1.187  0.2496  1.0835  0.6970
  626SOL    MW4 2504   2.501   3.093   1.162  0.2608  1.0582  0.6087
  627SOL     OW 2505   2.263   3.187   1.245 -0.0631  0.4817 -0.3276
  627SOL    HW2 2506   2.241   3.280   1.231 -1.2186  0.0989 -1.1163
  627SOL    HW3 2507   2.198   3.139   1.194 -0.0401 -0.7989  0.8066
  627SOL    MW4 2508   2.251   3.193   1.237 -0.2125  0.2622 -0.2820
  628SOL     OW 2509   2.216   3.453   1.154  0.1946 -0.2549 -0.0400
  628SOL    HW2 2510   2.295   3.502   1.175 -0.4152  0.5282  0.4389
  628SOL    HW3 2511   2.208   3.459   1.059  0.3106  0.2681 -0.0153
  628SOL    MW4 2512   2.226   3.460   1.145  0.1294 -0.0826  0.0264
  629SOL     OW 2513   2.440   3.604   1.201 -0.5272 -0.6549  0.1444
  629SOL    HW2 2514   2.457   3.592   1.295  1.1092 -0.6435 -0.1346
  629SOL    HW3 2515   2.451   3.698   1.187  0.8305 -0.8666 -0.3397
  629SOL    MW4 2516   2.444   3.615   1.212 -0.1322 -0.6813  0.0437
  630SOL     OW 2517   2.472   3.875   1.120  0.3554  0.1717  0.0619
  630SOL    HW2 2518   2.397   3.901   1.174  0.0393 -0.2355 -0.1876
  630SOL    HW3 2519   2.444   3.888   1.030  0.9481  1.0207 -0.0114
  630SOL    MW4 2520   2.459   3.881   1.115  0.3919  0.2300  0.0193
  631SOL     OW 2521   2.225   3.960   1.230 -0.1443  0.4927  0.0098
  631SOL    HW2 2522   2.211   4.050   1.201  2.0445  0.4964 -1.1073
  631SOL    HW3 2523   2.159   3.909   1.182  0.1118  1.1996 -1.1068
  631SOL    MW4 2524   2.214   3.965   1.219  0.1783  0.5864 -0.2849
  632SOL     OW 2525   2.221   4.210   1.120 -0.4187 -0.0506  0.1060
  632SOL    HW2 2526   2.150   4.274   1.127  1.1943  1.7324  0.5581
  632SOL    HW3 2527   2.217   4.181   1.029 -0.4210  1.6198 -0.4578
  632SOL    MW4 2528   2.211   4.215   1.109 -0.2062  0.4050  0.0913
  633SOL     OW 2529   2.422   4.347   1.248 -0.0006  0.0051 -0.3594
  633SOL    HW2 2530   2.349   4.304   1.202  0.4973 -0.5583 -0.6387
  633SOL    HW3 2531   2.409   4.440   1.231 -1.3208  0.0122  0.5778
  633SOL    MW4 2532   2.410   4.353   1.240 -0.1091 -0.0683 -0.2726
  634SOL     OW 2533   2.906   4.663   1.128  0.2776 -0.3677 -0.4168
  634SOL    HW2 2534   2.901   4.570   1.146  1.0307 -0.4520 -0.6232
  634SOL    HW3 2535   2.912   4.669   1.032 -2.1353  0.0019 -0.5638
  634SOL    MW4 2536   2.907   4.652   1.117  0.0586 -0.3300 -0.4634
  635SOL     OW 2537   2.671   0.100   1.229  0.0466  0.6001  0.1497
  635SOL    HW2 2538   2.681   0.109   1.323 -0.7920  2.4787  0.0838
  635SOL    HW3 2539   2.756   0.066   1.199  0.0045 -0.8663  1.6616
  635SOL    MW4 2540   2.684   0.097   1.237 -0.0696  0.6544  0.3404
  636SOL     OW 2541   2.696   0.363   1.104 -0.0486  0.6076 -0.2417
  636SOL    HW2 2542   2.700   0.277   1.144  0.9991 -0.3328 -2.3086
  636SOL    HW3 2543   2.613   0.400   1.135 -0.8979 -1.4553  0.0164
  636SOL    MW4 2544   2.685   0.357   1.113 -0.0224  0.2113 -0.4803
  637SOL     OW 2545   2.865   0.523   1.241  0.2362 -0.1408 -0.0156
  637SOL    HW2 2546   2.870   0.606   1.193  0.7840 -0.1066  0.0962
  637SOL    HW3 2547   2.809   0.467   1.186 -0.4834  0.4383  0.1173
  637SOL    MW4 2548   2.858   0.526   1.227  0.2135 -0.0599  0.0166
  638SOL     OW 2549   2.873   0.758   1.080  0.2465 -0.6254  0.2470
  638SOL    HW2 2550   2.955   0.799   1.104  0.1350  0.0435 -0.4861
  638SOL    HW3 2551   2.808   0.797   1.138  0.1572  0.1809 -0.3808
  638SOL    MW4 2552   2.875   0.768   1.091  0.2200 -0.4307  0.0675
  639SOL     OW 2553   2.676   0.895   1.230  0.1845 -0.3531 -0.2998
  639SOL    HW2 2554   2.681   0.985   1.197 -1.9763  0.4475  1.4191
  639SOL    HW3 2555   2.603   0.856   1.182  0.7783 -1.0477 -0.6568
  639SOL    MW4 2556   2.667   0.901   1.219 -0.0222 -0.3391 -0.1201
  640SOL     OW 2557   2.738   1.154   1.143 -0.1588  0.3900  0.6533
  640SOL    HW2 2558   2.826   1.179   1.173  0.8792 -1.9485 -0.3099
  640SOL    HW3 2559   2.745   1.154   1.048 -0.7792 -1.2968  0.6088
  640SOL    MW4 2560   2.751   1.158   1.135 -0.1037 -0.1411  0.5204
  641SOL     OW 2561   2.965   1.261   1.230  0.2005 -0.0742  0.3787
  641SOL    HW2 2562   2.960   1.262   1.326  1.9551 -0.2885  0.4888
  641SOL    HW3 2563   2.954   1.352   1.204  0.4192  0.0836  0.8360
  641SOL    MW4 2564   2.963   1.273   1.239  0.4609 -0.0817  0.4536
  642SOL     OW 2565   2.937   1.535   1.140 -0.2787 -0.0295  0.2904
  642SOL    HW2 2566   3.007   1.595   1.167 -1.9936  2.1762  0.0207
  642SOL    HW3 2567   2.948   1.526   1.045 -0.7319  0.8805  0.1378
  642SOL    MW4 2568   2.947   1.542   1.131 -0.5647  0.3816  0.2347
  643SOL     OW 2569   2.693   1.677   1.201 -0.0622  0.3840  0.4281
  643SOL    HW2 2570   2.768   1.626   1.170  0.5384  2.1602 -1.0957
  643SOL    HW3 2571   2.618   1.619   1.190  0.5858 -0.1090 -1.4884
  643SOL    MW4 2572   2.693   1.663   1.196  0.1025  0.5533 -0.0258
  644SOL     OW 2573   2.688   1.917   1.070 -0.2472 -0.1635 -0.0047
  644SOL    HW2 2574   2.757   1.955   1.124 -0.4765  1.2316 -0.6860
  644SOL    HW3 2575   2.689   1.824   1.093  3.1434 -0.5285 -1.4593
  644SOL    MW4 2576   2.697   1.910   1.080  0.1699 -0.0276 -0.2865
  645SOL     OW 2577   2.885   2.006   1.263  0.1248 -0.4152  0.2211
  645SOL    HW2 2578   2.884   2.005   1.359 -0.3150 -0.2193  0.2212
  645SOL    HW3 2579   2.904   2.097   1.240  1.4373 -0.7151  0.1256
  645SOL    MW4 2580   2.887   2.018   1.273  0.2399 -0.4289  0.2085
  646SOL     OW 2581   2.928   2.263   1.158 -0.5150  0.3693  0.4781
  646SOL    HW2 2582   3.014   2.298   1.182 -0.3508  0.2527  0.0625
  646SOL    HW3 2583   2.865   2.325   1.195 -0.2582  0.2460  1.1205
  646SOL    MW4 2584   2.931   2.276   1.166 -0.4594  0.3376  0.5081
  647SOL     OW 2585   2.725   2.452   1.235 -0.2305 -0.8251  0.0606
  647SOL    HW2 2586   2.739   2.418   1.323 -1.0118  0.1008  0.5534
  647SOL    HW3 2587   2.642   2.415   1.207 -1.3297  1.0045  0.7923
  647SOL    MW4 2588   2.716   2.443   1.243 -0.4786 -0.4616  0.2221
  648SOL     OW 2589   2.712   2.705   1.141 -0.5466  0.0113 -0.1545
  648SOL    HW2 2590   2.714   2.621   1.188  0.9108  1.1409  1.8898
  648SOL    HW3 2591   2.635   2.750   1.177 -0.7910 -0.0596 -0.5811
  648SOL    MW4 2592   2.702   2.699   1.152 -0.3866  0.1510  0.0590
  649SOL     OW 2593   2.941   2.823   1.235  0.1268  0.0519 -0.4637
  649SOL    HW2 2594   2.937   2.808   1.329  2.0023 -1.0234 -0.5408
  649SOL    HW3 2595   2.856   2.793   1.202 -0.9556  1.4303  0.9935
  649SOL    MW4 2596   2.929   2.817   1.243  0.2315  0.0919 -0.2816
  650SOL     OW 2597   3.120   3.239   1.249 -0.2375  0.1848  0.0374
  650SOL    HW2 2598   3.095   3.328   1.223  1.8694  0.4085 -1.2709
  650SOL    HW3 2599   3.060   3.182   1.201 -1.1284  0.8749  0.3254
  650SOL    MW4 2600   3.109   3.243   1.239 -0.0770  0.3053 -0.0972
  651SOL     OW 2601   2.735   3.229   1.268  0.0688  0.4752 -0.1869
  651SOL    HW2 2602   2.813   3.180   1.241 -0.3349 -0.0487 -0.4120
  651SOL    HW3 2603   2.662   3.183   1.226 -0.2236  1.8864 -1.2620
  651SOL    MW4 2604   2.736   3.217   1.259 -0.0230  0.5923 -0.3584
  652SOL     OW 2605   2.683   3.471   1.121  0.5284  0.1801 -0.1623
  652SOL    HW2 2606   2.694   3.393   1.176 -0.3119 -0.2601 -0.5974
  652SOL    HW3 2607   2.595   3.503   1.142  0.9778  1.1885  0.2245
  652SOL    MW4 2608   2.673   3.465   1.131  0.4768  0.2551 -0.1687
  653SOL     OW 2609   2.892   3.620   1.234  0.0667 -0.0384  0.3748
  653SOL    HW2 2610   2.971   3.570   1.212  0.0872  0.0029  0.3528
  653SOL    HW3 2611   2.821   3.574   1.189  0.1215  0.0979  0.1489
  653SOL    MW4 2612   2.893   3.607   1.225  0.0766 -0.0150  0.3421
  654SOL     OW 2613   2.929   3.855   1.117  0.7685  0.2759 -0.2983
  654SOL    HW2 2614   3.009   3.888   1.159 -0.2039 -0.9493  2.6384
  654SOL    HW3 2615   2.916   3.769   1.156 -1.0011 -0.3114 -2.1236
  654SOL    MW4 2616   2.938   3.848   1.128  0.4067  0.0368 -0.1517
  655SOL     OW 2617   2.697   4.014   1.179 -0.2355  0.4208 -0.2551
  655SOL    HW2 2618   2.773   3.957   1.165 -0.5467 -0.5619  1.8169
  655SOL    HW3 2619   2.622   3.961   1.153 -0.3520  0.7318 -0.5532
  655SOL    MW4 2620   2.697   3.999   1.174 -0.2919  0.3322 -0.0210
  656SOL     OW 2621   2.655   4.266   1.086  0.1880  0.1041  0.0616
  656SOL    HW2 2622   2.572   4.288   1.130  0.8362  0.7858  0.9633
  656SOL    HW3 2623   2.684   4.185   1.129  1.4883  1.4899  1.8203
  656SOL    MW4 2624   2.648   4.258   1.098  0.4451  0.3769  0.4126
  657SOL     OW 2625   2.883   4.397   1.190 -0.2110  0.2901  0.1927
  657SOL    HW2 2626   2.957   4.342   1.166  0.5053  1.4297 -0.2407
  657SOL    HW3 2627   2.808   4.359   1.144  0.8016  1.3610 -2.3993
  657SOL    MW4 2628   2.883   4.385   1.181  0.0171  0.5817 -0.2064
  658SOL     OW 2629   3.347   0.032   1.124  0.0308  0.0445 -0.3458
  658SOL    HW2 2630   3.428   0.038   1.174 -0.0396  2.0164 -0.4240
  658SOL    HW3 2631   3.280   0.067   1.183 -0.7710 -1.5306 -0.2907
  658SOL    MW4 2632   3.349   0.038   1.138 -0.0843  0.0969 -0.3489
  659SOL     OW 2633   3.128   0.168   1.264  0.2151 -0.0458  0.2307
  659SOL    HW2 2634   3.131   0.149   1.358  1.6293  0.4343  0.3059
  659SOL    HW3 2635   3.056   0.115   1.230 -0.9522  0.5439  1.7542
  659SOL    MW4 2636   3.119   0.158   1.272  0.2477  0.0954  0.4416
  660SOL     OW 2637   3.123   0.415   1.140  0.2139 -0.2901 -0.3798
  660SOL    HW2 2638   3.132   0.326   1.174  0.3008  0.0135  0.4068
  660SOL    HW3 2639   3.046   0.450   1.186  0.1221  0.0014 -0.7603
  660SOL    MW4 2640   3.114   0.408   1.151  0.2132 -0.2116 -0.3263
  661SOL     OW 2641   3.365   0.535   1.225 -0.0596 -0.3541 -0.2892
  661SOL    HW2 2642   3.381   0.624   1.193 -2.1427  1.1687  2.5626
  661SOL    HW3 2643   3.280   0.511   1.188  0.3072 -0.9954 -0.7193
  661SOL    MW4 2644   3.356   0.544   1.216 -0.2860 -0.2378  0.0303
  662SOL     OW 2645   3.376   0.794   1.138  0.6923  0.1933  0.0027
  662SOL    HW2 2646   3.284   0.810   1.158  0.8195  1.5321 -0.4389
  662SOL    HW3 2647   3.383   0.805   1.043  1.5560  1.4620  0.1940
  662SOL    MW4 2648   3.365   0.798   1.128  0.8231  0.5373 -0.0303
  663SOL     OW 2649   3.118   0.867   1.216  0.3266 -0.5399 -0.2700
  663SOL    HW2 2650   3.121   0.872   1.312 -0.4588 -0.3326 -0.2491
  663SOL    HW3 2651   3.139   0.956   1.187  0.4337 -0.5708 -0.2870
  663SOL    MW4 2652   3.121   0.879   1.225  0.2371 -0.5166 -0.2694
  664SOL     OW 2653   3.185   1.121   1.146  0.1750 -0.0944  0.2782
  664SOL    HW2 2654   3.263   1.135   1.199 -0.3856 -0.9179  1.3390
  664SOL    HW3 2655   3.117   1.175   1.187  0.3323  1.1672 -1.0462
  664SOL    MW4 2656   3.186   1.130   1.158  0.1218 -0.0366  0.2434
  665SOL     OW 2657   3.422   1.278   1.278  0.1564  0.1016 -0.2965
  665SOL    HW2 2658   3.419   1.293   1.372  0.6346  0.9935 -0.4158
  665SOL    HW3 2659   3.426   1.366   1.240 -1.2747 -0.2039 -1.1944
  665SOL    MW4 2660   3.422   1.292   1.285  0.0307  0.1790 -0.4307
  666SOL     OW 2661   3.417   1.538   1.138 -0.0313 -0.3117 -0.2268
  666SOL    HW2 2662   3.493   1.591   1.163 -0.9501  0.6713  0.5107
  666SOL    HW3 2663   3.342   1.596   1.150 -0.9257 -1.3527 -0.7158
  666SOL    MW4 2664   3.417   1.552   1.143 -0.2705 -0.3194 -0.1940
  667SOL     OW 2665   3.182   1.661   1.199 -0.7012 -0.0292 -0.0855
  667SOL    HW2 2666   3.178   1.653   1.295 -0.7330  1.1679  0.0151
  667SOL    HW3 2667   3.171   1.754   1.182 -1.8957 -0.3917 -1.3323
  667SOL    MW4 2668   3.180   1.672   1.210 -0.8630  0.0809 -0.2368
  668SOL     OW 2669   3.116   1.913   1.125 -0.1488  0.4018 -0.0952
  668SOL    HW2 2670   3.178   1.979   1.155 -0.8652  1.3451 -0.6500
  668SOL    HW3 2671   3.034   1.933   1.171 -0.4672  0.1260 -0.5320
  668SOL    MW4 2672   3.113   1.924   1.135 -0.2853  0.4899 -0.2260
  669SOL     OW 2673   3.354   2.065   1.226 -0.7907 -0.2166  0.0283
  669SOL    HW2 2674   3.433   2.014   1.208  0.2571  0.5061  2.4396
  669SOL    HW3 2675   3.373   2.153   1.192 -0.7140 -0.1464  0.2532
  669SOL    MW4 2676   3.367   2.070   1.219 -0.6423 -0.1120  0.3761
  670SOL     OW 2677   3.393   2.323   1.127  0.2108  0.1242  0.1628
  670SOL    HW2 2678   3.470   2.374   1.152 -0.0749  1.2636 -1.2451
  670SOL    HW3 2679   3.324   2.353   1.186  0.4097  0.3419  0.2832
  670SOL    MW4 2680   3.394   2.334   1.138  0.1993  0.3032 -0.0071
  671SOL     OW 2681   3.147   2.403   1.245  0.4499  0.3189  0.2941
  671SOL    HW2 2682   3.147   2.421   1.339  0.8557  0.9472  0.1759
  671SOL    HW3 2683   3.139   2.489   1.204 -3.4025 -0.1991 -0.2188
  671SOL    MW4 2684   3.146   2.416   1.252 -0.0048  0.3335  0.2108
  672SOL     OW 2685   3.152   2.657   1.149  0.3332 -0.1684  0.0327
  672SOL    HW2 2686   3.161   2.654   1.054 -3.6010 -1.4076 -0.3787
  672SOL    HW3 2687   3.076   2.712   1.165 -0.6914 -2.1146  2.3003
  672SOL    MW4 2688   3.143   2.664   1.139 -0.3210 -0.5886  0.2776
  673SOL     OW 2689   3.343   2.840   1.252  0.2842  0.4243  0.3657
  673SOL    HW2 2690   3.327   2.929   1.220 -0.2249  0.0120 -0.5211
  673SOL    HW3 2691   3.275   2.787   1.211 -0.1786 -0.1730  1.8619
  673SOL    MW4 2692   3.332   2.845   1.243  0.1560  0.2911  0.4461
  674SOL     OW 2693   3.338   3.097   1.153  0.1485  0.1410  0.4979
  674SOL    HW2 2694   3.419   3.141   1.177  1.0123 -1.4786  0.6779
  674SOL    HW3 2695   3.269   3.149   1.194  1.0492  1.8590 -0.1392
  674SOL    MW4 2696   3.339   3.109   1.162  0.3813  0.1540  0.4376
  675SOL     OW 2697   2.928   3.078   1.153  0.2890 -0.1011 -0.3560
  675SOL    HW2 2698   2.916   3.078   1.058  0.8981  0.4781 -0.4420
  675SOL    HW3 2699   2.927   2.986   1.178 -1.8126 -0.1941 -0.6648
  675SOL    MW4 2700   2.926   3.066   1.144  0.0921 -0.0369 -0.4081
  676SOL     OW 2701   3.094   3.488   1.121 -0.4840  0.2441  0.4740
  676SOL    HW2 2702   3.188   3.508   1.123 -0.2980 -0.7077  1.7791
  676SOL    HW3 2703   3.073   3.482   1.027  0.5460  1.3767  0.1530
  676SOL    MW4 2704   3.104   3.490   1.109 -0.3235  0.2679  0.6039
  677SOL     OW 2705   3.349   3.580   1.172 -0.2508 -0.0662  0.3261
  677SOL    HW2 2706   3.332   3.579   1.266 -0.1780  0.1185  0.3428
  677SOL    HW3 2707   3.434   3.538   1.162 -1.0453 -1.6481  0.1695
  677SOL    MW4 2708   3.358   3.574   1.183 -0.3460 -0.2506  0.3077
  678SOL     OW 2709   3.357   3.846   1.108  0.1204 -0.2223  0.3607
  678SOL    HW2 2710   3.283   3.871   1.163 -0.4411 -0.2480 -0.3685
  678SOL    HW3 2711   3.370   3.753   1.125  0.0441 -0.1954  0.5624
  678SOL    MW4 2712   3.349   3.837   1.117  0.0363 -0.2222  0.2911
  679SOL     OW 2713   3.145   3.971   1.222 -0.8586 -0.0113 -0.6099
  679SOL    HW2 2714   3.141   3.974   1.318 -2.7596 -0.4083 -0.6726
  679SOL    HW3 2715   3.136   4.063   1.195  0.9349  0.2488 -0.3790
  679SOL    MW4 2716   3.144   3.984   1.231 -0.8728 -0.0294 -0.5877
  680SOL     OW 2717   3.101   4.235   1.132 -0.3661  0.7900  0.2703
  680SOL    HW2 2718   3.176   4.293   1.148  0.2848 -0.0167  0.1414
  680SOL    HW3 2719   3.102   4.221   1.037 -1.1180  1.3563  0.1702
  680SOL    MW4 2720   3.111   4.241   1.122 -0.3794  0.7583  0.2401
  681SOL     OW 2721   3.321   4.421   1.191  0.0023 -0.0247 -0.3388
  681SOL    HW2 2722   3.398   4.388   1.144  0.6127  0.9194 -0.0176
  681SOL    HW3 2723   3.306   4.508   1.153 -0.7592 -0.1087 -0.2277
  681SOL    MW4 2724   3.329   4.428   1.180 -0.0176  0.0888 -0.2818
  682SOL     OW 2725   3.796   4.642   1.144 -0.1237 -0.3105  0.0513
  682SOL    HW2 2726   3.779   4.549   1.161 -1.3129  0.1534  1.5208
  682SOL    HW3 2727   3.786   4.651   1.049 -0.7935 -1.5383 -0.0087
  682SOL    MW4 2728   3.792   4.631   1.134 -0.3690 -0.4113  0.2373
  683SOL     OW 2729   3.588   0.116   1.257  0.1998  0.3885 -0.1434
  683SOL    HW2 2730   3.599   0.208   1.235  1.0471  0.1106 -0.8795
  683SOL    HW3 2731   3.663   0.072   1.217  1.1700 -0.2691  2.3166
  683SOL    MW4 2732   3.599   0.123   1.249  0.4396  0.2651  0.0840
  684SOL     OW 2733   3.600   0.392   1.201  0.6063  0.0124 -0.2955
  684SOL    HW2 2734   3.667   0.449   1.239  0.6249  0.2156 -0.6257
  684SOL    HW3 2735   3.521   0.447   1.198  0.4309 -0.2200  0.0760
  684SOL    MW4 2736   3.598   0.407   1.205  0.5856  0.0086 -0.2901
  685SOL     OW 2737   3.822   0.526   1.298  0.0070  0.2802  0.2767
  685SOL    HW2 2738   3.887   0.475   1.250 -1.6446 -1.9339  0.3200
  685SOL    HW3 2739   3.807   0.604   1.244  1.3085 -0.1065 -0.6537
  685SOL    MW4 2740   3.828   0.530   1.285 -0.0392 -0.0630  0.1596
  686SOL     OW 2741   3.777   0.749   1.143 -0.1483  0.5340 -0.5391
  686SOL    HW2 2742   3.856   0.793   1.176  0.6045 -0.1813 -1.3484
  686SOL    HW3 2743   3.705   0.787   1.194  0.4695  2.7015 -1.2190
  686SOL    MW4 2744   3.778   0.760   1.154  0.0325  0.7256 -0.7356
  687SOL     OW 2745   3.585   0.892   1.300 -0.2091 -0.1913  0.0743
  687SOL    HW2 2746   3.593   0.977   1.257  0.4857 -1.0232 -1.4942
  687SOL    HW3 2747   3.504   0.854   1.264  0.7871 -1.2227 -1.1605
  687SOL    MW4 2748   3.575   0.898   1.289  0.0140 -0.4371 -0.2956
  688SOL     OW 2749   3.635   1.112   1.154  0.1931  0.3335 -0.8640
  688SOL    HW2 2750   3.723   1.148   1.162  0.2736 -0.1742  0.8496
  688SOL    HW3 2751   3.578   1.182   1.186  0.1368 -0.0594 -0.0981
  688SOL    MW4 2752   3.639   1.126   1.159  0.1963  0.2147 -0.5369
  689SOL     OW 2753   3.863   1.254   1.228 -0.2771 -0.2712  0.2193
  689SOL    HW2 2754   3.843   1.243   1.321 -0.3242 -0.3118  0.2040
  689SOL    HW3 2755   3.852   1.348   1.213 -1.1907 -0.3945  0.0405
  689SOL    MW4 2756   3.859   1.265   1.238 -0.4039 -0.2928  0.1937
  690SOL     OW 2757   3.809   1.511   1.150 -0.1134 -0.2808 -0.3518
  690SOL    HW2 2758   3.875   1.579   1.164  0.6027 -1.3003  1.3709
  690SOL    HW3 2759   3.792   1.513   1.056  0.7310  1.5031 -0.4892
  690SOL    MW4 2760   3.816   1.520   1.140  0.0925 -0.1799 -0.1426
  691SOL     OW 2761   3.614   1.679   1.263  0.0417 -0.3006 -0.2655
  691SOL    HW2 2762   3.626   1.758   1.209  0.5189  0.1160  0.4408
  691SOL    HW3 2763   3.669   1.613   1.220  1.6844  0.4700  0.5935
  691SOL    MW4 2764   3.623   1.681   1.250  0.3214 -0.1439 -0.0589
  692SOL     OW 2765   3.584   1.931   1.149 -0.2979 -0.0320 -0.1239
  692SOL    HW2 2766   3.654   1.989   1.178  0.2619  0.3151 -2.0941
  692SOL    HW3 2767   3.591   1.931   1.054 -3.2658  0.3817 -0.3846
  692SOL    MW4 2768   3.594   1.939   1.141 -0.6156  0.0684 -0.4182
  693SOL     OW 2769   3.780   2.108   1.230 -0.5954  0.4640  0.3051
  693SOL    HW2 2770   3.789   2.103   1.325 -0.0166  0.4830  0.2518
  693SOL    HW3 2771   3.858   2.064   1.196 -0.9968  0.1108 -0.1614
  693SOL    MW4 2772   3.791   2.102   1.238 -0.5720  0.4199  0.2365
  694SOL     OW 2773   3.788   2.338   1.098  0.4305 -0.1542  0.0676
  694SOL    HW2 2774   3.868   2.382   1.125  1.0979 -0.5862 -1.1686
  694SOL    HW3 2775   3.791   2.253   1.142  0.6967 -0.2018 -0.0400
  694SOL    MW4 2776   3.799   2.333   1.108  0.5537 -0.2175 -0.1097
  695SOL     OW 2777   3.588   2.488   1.231  0.3620 -0.1061  0.1784
  695SOL    HW2 2778   3.572   2.477   1.325 -0.4830 -1.0694 -0.0825
  695SOL    HW3 2779   3.657   2.425   1.211  0.2850 -0.1578  0.0782
  695SOL    MW4 2780   3.595   2.479   1.241  0.2404 -0.2400  0.1308
  696SOL     OW 2781   3.565   2.740   1.110  0.8335  0.0592  0.0175
  696SOL    HW2 2782   3.570   2.655   1.154 -0.6550 -0.5138 -0.9076
  696SOL    HW3 2783   3.487   2.782   1.146  0.3208  0.1104 -1.1344
  696SOL    MW4 2784   3.556   2.734   1.121  0.5695 -0.0097 -0.2565
  697SOL     OW 2785   3.803   2.855   1.230 -0.1396  0.2904  0.3193
  697SOL    HW2 2786   3.780   2.824   1.318 -0.6592  1.3888  0.5761
  697SOL    HW3 2787   3.738   2.815   1.172 -0.0459 -0.0981  0.4754
  697SOL    MW4 2788   3.792   2.845   1.234 -0.1958  0.3841  0.3738
  698SOL     OW 2789   3.793   3.113   1.128 -0.0952  0.1644 -0.3795
  698SOL    HW2 2790   3.807   3.025   1.162 -0.0087 -0.1934 -1.3081
  698SOL    HW3 2791   3.777   3.100   1.034  1.1522  1.2474 -0.7514
  698SOL    MW4 2792   3.793   3.100   1.120  0.0808  0.2600 -0.5511
  699SOL     OW 2793   3.585   3.256   1.251  0.3734  0.0235  0.1411
  699SOL    HW2 2794   3.593   3.342   1.209 -0.1069 -0.9094 -1.9171
  699SOL    HW3 2795   3.659   3.206   1.217 -0.0589 -0.7600  0.3558
  699SOL    MW4 2796   3.595   3.261   1.241  0.2530 -0.2030 -0.1021
  700SOL     OW 2797   3.604   3.489   1.090 -0.1328  0.2219  0.0997
  700SOL    HW2 2798   3.682   3.540   1.114 -0.1720 -0.1400  1.0241
  700SOL    HW3 2799   3.611   3.477   0.996  1.3770 -0.5360  0.3061
  700SOL    MW4 2800   3.615   3.495   1.081  0.0612  0.0742  0.2489
  701SOL     OW 2801   3.816   3.657   1.182  0.4429 -0.2657 -0.6729
  701SOL    HW2 2802   3.796   3.639   1.274  2.3866 -1.5114 -0.4570
  701SOL    HW3 2803   3.835   3.750   1.179 -0.4088 -0.0595  0.0341
  701SOL    MW4 2804   3.816   3.667   1.194  0.5870 -0.4028 -0.5511
  702SOL     OW 2805   3.820   3.923   1.089  0.0308  0.5312  0.1059
  702SOL    HW2 2806   3.740   3.962   1.123 -0.0442 -1.1381  1.8930
  702SOL    HW3 2807   3.803   3.912   0.995 -1.3302  1.3729  0.2468
  702SOL    MW4 2808   3.807   3.926   1.081 -0.1587  0.4220  0.3603
  703SOL     OW 2809   3.563   4.024   1.178  0.0974  0.1371  0.2341
  703SOL    HW2 2810   3.561   4.036   1.273 -0.5788 -1.1416  0.3908
  703SOL    HW3 2811   3.498   3.956   1.161  1.1007 -0.5300 -1.0120
  703SOL    MW4 2812   3.554   4.017   1.189  0.1406 -0.1197  0.0904
  704SOL     OW 2813   3.539   4.294   1.104  0.1796 -0.0065 -0.2293
  704SOL    HW2 2814   3.544   4.210   1.150 -0.7552  0.1868  0.2191
  704SOL    HW3 2815   3.556   4.271   1.012 -0.4496 -0.7390 -0.1728
  704SOL    MW4 2816   3.542   4.280   1.098 -0.0267 -0.0776 -0.1627
  705SOL     OW 2817   3.783   4.357   1.192 -0.1209  0.0988  0.3408
  705SOL    HW2 2818   3.764   4.364   1.286  0.3966 -0.1317  0.4651
  705SOL    HW3 2819   3.700   4.331   1.153 -0.0880 -0.8070  0.8650
  705SOL    MW4 2820   3.770   4.355   1.200 -0.0483 -0.0511  0.4264
  706SOL     OW 2821   4.220   0.001   1.091  0.2753 -0.2823 -0.3336
  706SOL    HW2 2822   4.217  -0.078   1.145  0.9754  0.0557  0.2018
  706SOL    HW3 2823   4.151   0.057   1.127  0.5033 -0.2027 -0.0234
  706SOL    MW4 2824   4.211  -0.002   1.103  0.3978 -0.2272 -0.2221
  707SOL     OW 2825   4.016   0.138   1.222 -0.0084 -0.3125  0.0569
  707SOL    HW2 2826   4.049   0.113   1.309 -0.5740  0.6578  0.5667
  707SOL    HW3 2827   3.950   0.072   1.202 -1.2166  0.5025  1.2184
  707SOL    MW4 2828   4.012   0.126   1.231 -0.2424 -0.0770  0.2774
  708SOL     OW 2829   4.025   0.400   1.164 -0.4543 -0.0110 -0.0469
  708SOL    HW2 2830   4.021   0.406   1.069  1.0754 -1.5379 -0.2277
  708SOL    HW3 2831   4.012   0.307   1.183 -0.8180  0.2896  1.2407
  708SOL    MW4 2832   4.023   0.389   1.154 -0.3005 -0.1728  0.0991
  709SOL     OW 2833   4.273   0.505   1.260 -0.2357 -0.1521 -0.2594
  709SOL    HW2 2834   4.265   0.517   1.355 -1.3102 -0.1140 -0.3425
  709SOL    HW3 2835   4.184   0.482   1.232  0.1786 -0.6187 -1.1905
  709SOL    MW4 2836   4.260   0.504   1.269 -0.3228 -0.2086 -0.3932
  710SOL     OW 2837   4.243   0.781   1.159  0.1497  0.2527 -0.2796
  710SOL    HW2 2838   4.245   0.692   1.193 -0.3403  0.3421 -0.0156
  710SOL    HW3 2839   4.252   0.772   1.065  0.7875 -0.0386 -0.1943
  710SOL    MW4 2840   4.245   0.768   1.151  0.1692  0.2260 -0.2335
  711SOL     OW 2841   4.001   0.865   1.249  0.0192  0.5274  0.1073
  711SOL    HW2 2842   4.016   0.867   1.344  0.7576 -1.2287  0.0550
  711SOL    HW3 2843   4.086   0.842   1.212 -0.1764  1.5924 -1.0122
  711SOL    MW4 2844   4.014   0.862   1.257  0.0908  0.4362 -0.0473
  712SOL     OW 2845   4.069   1.097   1.127 -0.5800 -0.1641  0.0694
  712SOL    HW2 2846   4.070   1.011   1.168  0.0415  0.7126  1.9480
  712SOL    HW3 2847   3.995   1.142   1.167 -2.0514 -0.4638 -2.2812
  712SOL    MW4 2848   4.060   1.091   1.138 -0.6921 -0.0880  0.0071
  713SOL     OW 2849   4.251   1.297   1.212  0.1834  0.2051 -0.2316
  713SOL    HW2 2850   4.245   1.310   1.307  0.3200  0.4593 -0.2562
  713SOL    HW3 2851   4.184   1.232   1.192  1.0411 -0.8308  0.2325
  713SOL    MW4 2852   4.241   1.290   1.222  0.3146  0.1019 -0.1736
  714SOL     OW 2853   4.256   1.583   1.149  0.3517 -0.1010 -0.0676
  714SOL    HW2 2854   4.235   1.500   1.191  0.0836  0.2519  0.4964
  714SOL    HW3 2855   4.322   1.623   1.207  0.6658 -0.0371 -0.4695
  714SOL    MW4 2856   4.262   1.578   1.162  0.3578 -0.0460 -0.0462
  715SOL     OW 2857   4.025   1.695   1.221  0.2718  0.0575  0.3990
  715SOL    HW2 2858   4.020   1.677   1.314 -0.1473  0.8111  0.5250
  715SOL    HW3 2859   4.114   1.668   1.196  0.7036  0.7176  1.2045
  715SOL    MW4 2860   4.036   1.689   1.230  0.2735  0.2440  0.5219
  716SOL     OW 2861   3.989   1.954   1.130 -0.0582 -0.0102 -0.0915
  716SOL    HW2 2862   3.982   1.860   1.151  0.3238  0.0587  0.3436
  716SOL    HW3 2863   3.971   1.959   1.036  0.0824 -0.5375 -0.1464
  716SOL    MW4 2864   3.986   1.942   1.121  0.0107 -0.0707 -0.0413
  717SOL     OW 2865   4.254   2.107   1.267  0.3142  0.7350  0.0813
  717SOL    HW2 2866   4.263   2.191   1.223 -0.1502 -0.4423 -2.3435
  717SOL    HW3 2867   4.183   2.063   1.221  1.3054 -1.4407  0.5593
  717SOL    MW4 2868   4.246   2.112   1.255  0.3837  0.2926 -0.1756
  718SOL     OW 2869   4.251   2.342   1.119 -0.6659  0.1124  0.3307
  718SOL    HW2 2870   4.166   2.382   1.141 -1.5923 -1.9055  0.4840
  718SOL    HW3 2871   4.243   2.319   1.027 -0.7786 -1.3091  0.6947
  718SOL    MW4 2872   4.238   2.345   1.110 -0.8030 -0.3414  0.3989
  719SOL     OW 2873   4.013   2.464   1.198 -0.2725 -0.3334 -0.0006
  719SOL    HW2 2874   4.030   2.458   1.292 -0.5241 -0.0818  0.0602
  719SOL    HW3 2875   4.033   2.556   1.177  0.9117 -0.6780 -0.4069
  719SOL    MW4 2876   4.018   2.476   1.208 -0.1494 -0.3457 -0.0462
  720SOL     OW 2877   4.031   2.734   1.157 -0.3155  0.0235  0.0133
  720SOL    HW2 2878   3.954   2.776   1.196 -0.1332 -0.3210  0.7588
  720SOL    HW3 2879   4.017   2.741   1.063 -1.6219 -0.7122  0.1391
  720SOL    MW4 2880   4.019   2.741   1.150 -0.4638 -0.1190  0.1283
  721SOL     OW 2881   4.285   2.837   1.275 -0.0100 -0.0426  0.7668
  721SOL    HW2 2882   4.283   2.929   1.247  1.7023 -0.5920 -1.3109
  721SOL    HW3 2883   4.205   2.799   1.238  0.3488  0.1307 -0.2120
  721SOL    MW4 2884   4.274   2.844   1.266  0.2633 -0.0922  0.3635
  722SOL     OW 2885   4.265   3.100   1.197 -0.1120 -0.2815  0.2149
  722SOL    HW2 2886   4.182   3.147   1.209  0.5038  0.8935 -0.1220
  722SOL    HW3 2887   4.281   3.104   1.103 -0.1342 -1.3197  0.1572
  722SOL    MW4 2888   4.256   3.107   1.186 -0.0337 -0.2635  0.1628
  723SOL     OW 2889   4.023   3.263   1.197  0.1990  0.2676  0.1895
  723SOL    HW2 2890   4.024   3.261   1.293 -0.2026 -1.2567  0.1768
  723SOL    HW3 2891   3.950   3.207   1.173  0.3027  0.6491 -1.0133
  723SOL    MW4 2892   4.014   3.255   1.207  0.1597  0.1168  0.0291
  724SOL     OW 2893   4.045   3.531   1.111 -0.0625  0.0461 -0.0462
  724SOL    HW2 2894   4.044   3.439   1.138 -0.8553 -0.8188 -2.8958
  724SOL    HW3 2895   3.960   3.565   1.138 -0.3179 -0.4460 -0.2162
  724SOL    MW4 2896   4.034   3.523   1.118 -0.2008 -0.1329 -0.4446
  725SOL     OW 2897   4.259   3.637   1.258 -0.1252  0.0885 -0.1609
  725SOL    HW2 2898   4.198   3.590   1.202 -0.0031  0.1090 -0.3106
  725SOL    HW3 2899   4.344   3.596   1.241 -0.2674 -0.6061  0.7876
  725SOL    MW4 2900   4.262   3.626   1.248 -0.1278 -0.0005 -0.0555
  726SOL     OW 2901   4.299   3.897   1.122  0.0772 -0.4220 -0.3490
  726SOL    HW2 2902   4.214   3.939   1.137  0.6289  0.5901 -0.0225
  726SOL    HW3 2903   4.292   3.813   1.166 -1.0950 -0.7417 -1.1381
  726SOL    MW4 2904   4.287   3.892   1.130 -0.0047 -0.3306 -0.4101
  727SOL     OW 2905   4.060   4.001   1.177 -0.0568  0.3800  0.1250
  727SOL    HW2 2906   4.043   4.092   1.152 -1.7293 -0.1950 -0.9590
  727SOL    HW3 2907   3.979   3.956   1.156  0.2625 -1.1025  2.0245
  727SOL    MW4 2908   4.047   4.007   1.171 -0.2354  0.1085  0.2326
  728SOL     OW 2909   4.038   4.265   1.104 -0.1654 -0.1345  0.3042
  728SOL    HW2 2910   3.955   4.296   1.140 -0.1807 -0.4081  0.5093
  728SOL    HW3 2911   4.023   4.261   1.010 -0.5072 -0.5394  0.3744
  728SOL    MW4 2912   4.025   4.269   1.096 -0.2125 -0.2240  0.3405
  729SOL     OW 2913   4.231   4.434   1.224  0.1146 -0.6483 -0.0513
  729SOL    HW2 2914   4.165   4.375   1.188  0.1883 -0.2273 -0.8988
  729SOL    HW3 2915   4.314   4.398   1.194  0.1206  0.2590 -1.1321
  729SOL    MW4 2916   4.233   4.422   1.215  0.1251 -0.4731 -0.3057
  730SOL     OW 2917   0.217   4.640   1.622  0.0461 -0.8001  0.0733
  730SOL    HW2 2918   0.284   4.697   1.585 -0.1892 -0.1022  0.7001
  730SOL    HW3 2919   0.135   4.673   1.585 -0.3713  0.9334  2.3905
  730SOL    MW4 2920   0.215   4.652   1.612 -0.0400 -0.4793  0.4617
  731SOL     OW 2921   0.002   0.118   1.515 -0.4326 -0.2566 -0.2395
  731SOL    HW2 2922  -0.075   0.084   1.560 -0.2116 -1.1239 -0.5015
  731SOL    HW3 2923  -0.022   0.117   1.422 -0.2912 -0.0371 -0.2803
  731SOL    MW4 2924  -0.011   0.114   1.508 -0.3848 -0.3421 -0.2795
  732SOL     OW 2925   4.477   0.389   1.630 -0.4117  0.1960 -0.8304
  732SOL    HW2 2926   4.469   0.385   1.725 -0.3959  1.5576 -0.7566
  732SOL    HW3 2927   4.488   0.298   1.603 -1.2418 -0.2885  0.3965
  732SOL    MW4 2928   4.477   0.377   1.639 -0.5192  0.3117 -0.6588
  733SOL     OW 2929   0.178   0.563   1.532  0.3418  0.2713  0.0988
  733SOL    HW2 2930   0.110   0.507   1.570  0.4811 -0.2007 -0.3395
  733SOL    HW3 2931   0.173   0.546   1.438  1.3188 -0.0511  0.0984
  733SOL    MW4 2932   0.169   0.553   1.525  0.4891  0.1665  0.0409
  734SOL     OW 2933   0.213   0.798   1.678  0.0575  0.2105  0.4685
  734SOL    HW2 2934   0.279   0.853   1.635  1.2258 -0.6370  1.1366
  734SOL    HW3 2935   0.210   0.718   1.626  0.5386 -0.2966  1.2055
  734SOL    MW4 2936   0.221   0.794   1.665  0.2751  0.0317  0.6539
  735SOL     OW 2937   4.487   0.913   1.502  0.3854  0.2866  0.7240
  735SOL    HW2 2938   4.503   1.006   1.512 -0.1843  0.6484 -1.3688
  735SOL    HW3 2939   4.555   0.871   1.555  1.6291  1.8789  0.4499
  735SOL    MW4 2940   4.498   0.919   1.510  0.4743  0.5444  0.4117
  736SOL     OW 2941   0.001   1.185   1.562  0.6556  0.1284  0.3430
  736SOL    HW2 2942   0.004   1.194   1.658  0.3034 -0.6871  0.4313
  736SOL    HW3 2943   0.087   1.213   1.533  0.2930  1.7834  0.7844
  736SOL    MW4 2944   0.013   1.190   1.571  0.5613  0.2392  0.4129
  737SOL     OW 2945   0.257   1.283   1.489  0.2517 -0.1564  0.1054
  737SOL    HW2 2946   0.274   1.368   1.531 -0.4567  0.0301  0.0196
  737SOL    HW3 2947   0.271   1.300   1.396  2.5235 -0.7452  0.3200
  737SOL    MW4 2948   0.261   1.297   1.482  0.4579 -0.2094  0.1224
  738SOL     OW 2949   0.262   1.514   1.613  0.7238 -0.3914 -0.3139
  738SOL    HW2 2950   0.272   1.521   1.708  0.0118 -1.4329 -0.1572
  738SOL    HW3 2951   0.184   1.565   1.593  2.4442  2.1814 -0.7113
  738SOL    MW4 2952   0.253   1.522   1.623  0.8569 -0.1894 -0.3457
  739SOL     OW 2953   0.039   1.665   1.519  0.2076 -1.0135 -0.1687
  739SOL    HW2 2954   0.035   1.754   1.555 -1.5219 -1.0978 -0.1108
  739SOL    HW3 2955   0.023   1.676   1.426 -0.6602 -1.3290 -0.0565
  739SOL    MW4 2956   0.036   1.678   1.512 -0.1351 -1.0663 -0.1462
  740SOL     OW 2957   0.009   1.924   1.615 -0.4132  0.4172  0.0530
  740SOL    HW2 2958   0.009   1.950   1.707 -0.8403  0.2156  0.1093
  740SOL    HW3 2959  -0.063   1.973   1.576 -0.8698 -0.2686  0.0401
  740SOL    MW4 2960  -0.000   1.934   1.622 -0.5297  0.3001  0.0587
  741SOL     OW 2961   0.241   2.065   1.531 -0.4401  0.4517 -0.2105
  741SOL    HW2 2962   0.166   2.021   1.571 -0.7453  0.7144 -0.4922
  741SOL    HW3 2963   0.219   2.072   1.438 -0.3551  1.1224 -0.1840
  741SOL    MW4 2964   0.228   2.060   1.524 -0.4692  0.5749 -0.2442
  742SOL     OW 2965   0.215   2.327   1.567  0.1460  0.4783  0.4871
  742SOL    HW2 2966   0.238   2.338   1.659 -2.5471 -0.1380  1.2822
  742SOL    HW3 2967   0.220   2.232   1.552  0.2871  0.5477  0.0716
  742SOL    MW4 2968   0.219   2.316   1.577 -0.1907  0.4061  0.5372
  743SOL     OW 2969   4.460   2.427   1.466 -0.9072 -0.0641 -0.3635
  743SOL    HW2 2970   4.399   2.378   1.522 -1.3263 -1.2018 -1.7707
  743SOL    HW3 2971   4.547   2.396   1.492 -1.1320 -1.0128 -0.7180
  743SOL    MW4 2972   4.463   2.416   1.476 -0.9921 -0.3394 -0.5959
  744SOL     OW 2973   4.414   2.660   1.616 -0.1447  0.1839 -0.0312
  744SOL    HW2 2974   4.330   2.701   1.597  0.0474  0.4796 -0.2422
  744SOL    HW3 2975   4.407   2.573   1.577  0.7174  1.2353 -2.6225
  744SOL    MW4 2976   4.402   2.654   1.608 -0.0056  0.3616 -0.4009
  745SOL     OW 2977   0.148   2.835   1.524  0.3456 -0.1566  0.0043
  745SOL    HW2 2978   0.231   2.788   1.537  0.5239  0.6557  1.9264
  745SOL    HW3 2979   0.080   2.771   1.543  0.5351 -0.5918 -0.7644
  745SOL    MW4 2980   0.150   2.820   1.528  0.3942 -0.1068  0.1564
  746SOL     OW 2981   0.213   3.097   1.616 -0.0536 -0.1572 -0.3843
  746SOL    HW2 2982   0.138   3.148   1.587  0.8346  1.4965  0.1793
  746SOL    HW3 2983   0.201   3.011   1.575 -1.0977  0.7760 -2.0794
  746SOL    MW4 2984   0.202   3.092   1.607 -0.0741  0.1841 -0.5336
  747SOL     OW 2985   0.002   3.238   1.544 -0.2054 -0.4117 -0.0587
  747SOL    HW2 2986  -0.005   3.328   1.577 -1.0896 -0.2224 -0.7467
  747SOL    HW3 2987   0.007   3.248   1.448 -0.5193 -1.1077 -0.1478
  747SOL    MW4 2988   0.002   3.251   1.535 -0.3635 -0.4786 -0.1612
  748SOL     OW 2989   4.448   3.507   1.621  0.0379 -0.0664  0.1898
  748SOL    HW2 2990   4.452   3.494   1.716  0.5110  0.1421  0.2010
  748SOL    HW3 2991   4.364   3.551   1.607 -0.9826 -1.9269  0.2833
  748SOL    MW4 2992   4.437   3.511   1.632 -0.0343 -0.2843  0.2036
  749SOL     OW 2993   0.205   3.624   1.548 -0.9445 -0.1615 -0.6102
  749SOL    HW2 2994   0.207   3.717   1.569 -1.1967 -0.0261 -1.1774
  749SOL    HW3 2995   0.116   3.596   1.573 -0.3237 -0.6252  1.1346
  749SOL    MW4 2996   0.193   3.632   1.554 -0.8959 -0.2048 -0.4548
  750SOL     OW 2997   0.218   3.894   1.596 -0.1148 -0.2673 -0.0740
  750SOL    HW2 2998   0.218   3.895   1.692 -1.5875  1.1727 -0.0647
  750SOL    HW3 2999   0.296   3.944   1.572  0.5512 -1.0857  0.3705
  750SOL    MW4 3000   0.228   3.901   1.606 -0.2212 -0.1853 -0.0141
  751SOL     OW 3001   4.475   4.013   1.509  0.4860  0.0196 -0.2458
  751SOL    HW2 3002   4.494   4.103   1.535  0.2331 -0.2852  1.0420
  751SOL    HW3 3003   4.557   3.966   1.525 -0.2646 -0.5974  2.0703
  751SOL    MW4 3004   4.488   4.019   1.515  0.3536 -0.1020  0.2297
  752SOL     OW 3005   4.475   4.302   1.590 -0.4495  0.4961 -0.3883
  752SOL    HW2 3006   4.462   4.282   1.683  1.0418 -1.0292 -0.4965
  752SOL    HW3 3007   4.392   4.341   1.562  0.0830  3.8386  2.3123
  752SOL    MW4 3008   4.462   4.304   1.599 -0.1825  0.7359 -0.0463
  753SOL     OW 3009   0.243   4.384   1.493 -0.4294  0.0679 -0.3081
  753SOL    HW2 3010   0.157   4.344   1.509 -0.5468  0.6126  0.4587
  753SOL    HW3 3011   0.238   4.468   1.537  1.0821 -0.5789  1.1080
  753SOL    MW4 3012   0.231   4.390   1.501 -0.2454  0.0545 -0.0201
  754SOL     OW 3013   0.657   4.654   1.568 -0.6179 -0.3594 -0.4336
  754SOL    HW2 3014   0.725   4.702   1.521 -1.4812  1.3451  0.0179
  754SOL    HW3 3015   0.576   4.678   1.525 -1.2399 -0.1011  0.8588
  754SOL    MW4 3016   0.656   4.663   1.556 -0.8139 -0.1004 -0.2035
  755SOL     OW 3017   0.415   0.116   1.514  0.1063  0.2313  0.2706
  755SOL    HW2 3018   0.410   0.200   1.559 -3.3417 -0.0279  0.5384
  755SOL    HW3 3019   0.405   0.138   1.421 -1.0715  0.1277  0.3631
  755SOL    MW4 3020   0.413   0.130   1.508 -0.5040  0.1834  0.3181
  756SOL     OW 3021   0.392   0.389   1.581 -0.1220  0.0824  0.0330
  756SOL    HW2 3022   0.474   0.432   1.557  0.2966  0.4960  2.0350
  756SOL    HW3 3023   0.325   0.455   1.564  0.1117  0.2034 -0.4218
  756SOL    MW4 3024   0.394   0.403   1.576 -0.0360  0.1529  0.2371
  757SOL     OW 3025   0.651   0.519   1.504 -0.0793  0.0871  0.5705
  757SOL    HW2 3026   0.667   0.613   1.517  0.4746  0.1496 -0.5485
  757SOL    HW3 3027   0.646   0.509   1.409  0.8298 -1.1797  0.6518
  757SOL    MW4 3028   0.652   0.530   1.494  0.1137 -0.0718  0.4336
  758SOL     OW 3029   0.694   0.781   1.577  0.0105  0.1180 -0.2035
  758SOL    HW2 3030   0.717   0.778   1.670 -0.0582 -1.2213 -0.2214
  758SOL    HW3 3031   0.775   0.808   1.534  0.3839 -0.4402  0.1359
  758SOL    MW4 3032   0.708   0.784   1.584  0.0507 -0.1323 -0.1611
  759SOL     OW 3033   0.438   0.878   1.533 -0.1104  0.1825 -0.4385
  759SOL    HW2 3034   0.457   0.967   1.563 -0.0888  0.2002 -0.5059
  759SOL    HW3 3035   0.518   0.829   1.552  0.4644  0.5400 -1.8742
  759SOL    MW4 3036   0.451   0.883   1.540 -0.0317  0.2320 -0.6368
  760SOL     OW 3037   0.437   1.147   1.633 -0.3552 -0.1746  0.5966
  760SOL    HW2 3038   0.516   1.190   1.601 -0.0515 -1.3889 -0.3212
  760SOL    HW3 3039   0.365   1.191   1.587 -0.0711 -0.3662 -0.0444
  760SOL    MW4 3040   0.438   1.158   1.622 -0.2777 -0.3601  0.3909
  761SOL     OW 3041   0.649   1.292   1.532  0.6208 -0.0072 -0.1613
  761SOL    HW2 3042   0.650   1.377   1.575 -0.0423 -0.2111  0.2613
  761SOL    HW3 3043   0.654   1.312   1.439  0.8519  0.4780 -0.0451
  761SOL    MW4 3044   0.650   1.306   1.525  0.5638  0.0299 -0.0902
  762SOL     OW 3045   0.680   1.556   1.607  0.2032  0.1932 -0.9959
  762SOL    HW2 3046   0.756   1.600   1.570  0.2029  1.3459  0.3261
  762SOL    HW3 3047   0.606   1.593   1.559  0.3138  0.6421 -0.8277
  762SOL    MW4 3048   0.680   1.567   1.596  0.2177  0.4045 -0.7993
  763SOL     OW 3049   0.481   1.661   1.486  0.0947  0.1559 -0.2485
  763SOL    HW2 3050   0.478   1.752   1.513 -0.2750 -0.0952  0.5591
  763SOL    HW3 3051   0.426   1.614   1.549 -0.8209 -0.4297 -1.4667
  763SOL    MW4 3052   0.474   1.667   1.498 -0.0749  0.0455 -0.3027
  764SOL     OW 3053   0.472   1.924   1.578 -0.0217  0.5408  0.0729
  764SOL    HW2 3054   0.465   1.910   1.672  0.8187  0.8439  0.1855
  764SOL    HW3 3055   0.388   1.962   1.553  0.5078  2.4376  1.0750
  764SOL    MW4 3056   0.460   1.928   1.587  0.1590  0.8310  0.2199
  765SOL     OW 3057   0.699   2.082   1.479 -0.5421  0.4528  0.0742
  765SOL    HW2 3058   0.770   2.039   1.526  0.5101  0.7389 -1.2143
  765SOL    HW3 3059   0.619   2.044   1.516  0.2678  0.1582  1.5659
  765SOL    MW4 3060   0.698   2.071   1.490 -0.2964  0.4517  0.1010
  766SOL     OW 3061   0.638   2.309   1.595 -0.0794 -0.0934  0.2466
  766SOL    HW2 3062   0.594   2.363   1.530  0.4300 -0.0321 -0.0518
  766SOL    HW3 3063   0.665   2.231   1.548  0.1713 -0.1107  0.4135
  766SOL    MW4 3064   0.636   2.306   1.580  0.0209 -0.0876  0.2293
  767SOL     OW 3065   0.442   2.477   1.452 -0.1175  0.0993  0.3261
  767SOL    HW2 3066   0.420   2.567   1.474 -0.6471  0.1621 -0.4454
  767SOL    HW3 3067   0.368   2.426   1.485  0.2556 -0.0762  0.9048
  767SOL    MW4 3068   0.429   2.482   1.459 -0.1381  0.0844  0.3006
  768SOL     OW 3069   0.403   2.732   1.549 -0.5989  0.2607 -0.0858
  768SOL    HW2 3070   0.411   2.721   1.644 -0.9487 -1.9741 -0.2751
  768SOL    HW3 3071   0.481   2.781   1.523  0.5639 -0.9320  1.0810
  768SOL    MW4 3072   0.414   2.737   1.558 -0.4916 -0.1915  0.0432
  769SOL     OW 3073   0.653   2.854   1.504 -0.0107  0.5429 -0.5255
  769SOL    HW2 3074   0.665   2.943   1.537 -0.2325  0.7735 -1.0562
  769SOL    HW3 3075   0.670   2.861   1.410 -0.2118  0.0631 -0.5984
  769SOL    MW4 3076   0.657   2.867   1.496 -0.0665  0.5100 -0.6051
  770SOL     OW 3077   0.682   3.116   1.604 -0.1209 -0.3366 -0.0145
  770SOL    HW2 3078   0.745   3.182   1.576  0.8840 -0.2543  2.3017
  770SOL    HW3 3079   0.596   3.157   1.593  0.3826  0.5219 -0.7060
  770SOL    MW4 3080   0.679   3.130   1.599  0.0781 -0.2125  0.1999
  771SOL     OW 3081   0.428   3.230   1.509 -0.5544  0.4676  0.2521
  771SOL    HW2 3082   0.360   3.170   1.540  1.1065 -1.6301 -0.0754
  771SOL    HW3 3083   0.432   3.215   1.414 -0.2935  1.2783  0.1292
  771SOL    MW4 3084   0.419   3.220   1.500 -0.3008  0.2978  0.1927
  772SOL     OW 3085   0.458   3.499   1.606 -0.3323 -0.4498 -0.0952
  772SOL    HW2 3086   0.443   3.410   1.573 -1.3171 -0.6450  0.8497
  772SOL    HW3 3087   0.374   3.544   1.592 -0.5924 -0.3848  1.6456
  772SOL    MW4 3088   0.445   3.493   1.599 -0.4965 -0.4670  0.2591
  773SOL     OW 3089   0.675   3.615   1.481 -0.0025  0.2660 -0.2943
  773SOL    HW2 3090   0.742   3.573   1.536 -0.1376  0.4848  0.0395
  773SOL    HW3 3091   0.594   3.570   1.504  0.2838 -1.0751 -1.8454
  773SOL    MW4 3092   0.673   3.603   1.492  0.0175  0.1179 -0.4549
  774SOL     OW 3093   0.690   3.831   1.635  0.4568  0.2264 -0.0829
  774SOL    HW2 3094   0.767   3.881   1.607  1.1375 -0.8864 -0.2192
  774SOL    HW3 3095   0.689   3.754   1.579  0.0619 -0.4770  0.8668
  774SOL    MW4 3096   0.700   3.828   1.624  0.4945 -0.0133  0.0244
  775SOL     OW 3097   0.463   3.984   1.510 -0.5010 -0.2983  0.3965
  775SOL    HW2 3098   0.519   3.917   1.550  0.7775 -0.0000 -0.8475
  775SOL    HW3 3099   0.472   3.969   1.416 -2.3892 -0.1326  0.1838
  775SOL    MW4 3100   0.472   3.973   1.503 -0.5814 -0.2371  0.2043
  776SOL     OW 3101   0.456   4.247   1.619  0.0160 -0.1443  0.3052
  776SOL    HW2 3102   0.455   4.157   1.587 -0.6079  0.7884 -2.4063
  776SOL    HW3 3103   0.390   4.293   1.567  0.7511  2.0248  1.2059
  776SOL    MW4 3104   0.447   4.241   1.608  0.0307  0.2649  0.0663
  777SOL     OW 3105   0.684   4.366   1.522  0.3722  0.4288 -0.7969
  777SOL    HW2 3106   0.605   4.319   1.550  1.4866  0.2328  2.2601
  777SOL    HW3 3107   0.668   4.456   1.549  0.7557  0.5828 -1.0929
  777SOL    MW4 3108   0.672   4.371   1.530  0.5699  0.4233 -0.4326
  778SOL     OW 3109   1.096   4.654   1.547 -0.5570  0.1776 -0.0694
  778SOL    HW2 3110   1.102   4.642   1.642 -0.8935 -0.1749 -0.0939
  778SOL    HW3 3111   1.184   4.683   1.521 -0.6203  0.8505  0.4316
  778SOL    MW4 3112   1.109   4.656   1.556 -0.6097  0.2199 -0.0065
  779SOL     OW 3113   0.865   0.114   1.468  0.1864  0.2423  0.3747
  779SOL    HW2 3114   0.858   0.195   1.519  0.3534  0.6106 -0.1933
  779SOL    HW3 3115   0.933   0.064   1.513 -0.8496 -0.1724  1.5230
  779SOL    MW4 3116   0.873   0.118   1.481  0.0717  0.2362  0.4512
  780SOL     OW 3117   0.868   0.378   1.588 -0.2494  0.0995  0.4532
  780SOL    HW2 3118   0.865   0.376   1.683 -0.0496  0.1033  0.4589
  780SOL    HW3 3119   0.788   0.425   1.563 -0.8951 -0.9131  0.5762
  780SOL    MW4 3120   0.857   0.384   1.597 -0.3082 -0.0336  0.4702
  781SOL     OW 3121   1.102   0.486   1.464  0.2614 -0.1862 -0.6794
  781SOL    HW2 3122   1.090   0.576   1.496 -0.6284 -0.2298 -0.8813
  781SOL    HW3 3123   1.023   0.440   1.492  1.2675 -1.2296  0.5112
  781SOL    MW4 3124   1.090   0.492   1.472  0.2767 -0.3296 -0.5489
  782SOL     OW 3125   1.146   0.739   1.595  0.1144 -0.1115  0.4733
  782SOL    HW2 3126   1.135   0.743   1.690  0.6676 -0.4511  0.5524
  782SOL    HW3 3127   1.228   0.787   1.578  0.3231 -0.5566  0.2260
  782SOL    MW4 3128   1.156   0.746   1.605  0.2149 -0.2151  0.4511
  783SOL     OW 3129   0.925   0.929   1.511 -0.2436  0.0038  0.0948
  783SOL    HW2 3130   1.013   0.892   1.513  0.1833  1.0014  0.5761
  783SOL    HW3 3131   0.899   0.927   1.419  0.0546 -0.8272  0.0309
  783SOL    MW4 3132   0.933   0.924   1.499 -0.1480  0.0258  0.1499
  784SOL     OW 3133   0.892   1.173   1.618 -0.3890  0.3916 -0.1476
  784SOL    HW2 3134   0.898   1.084   1.582  3.0612  1.7698 -3.2911
  784SOL    HW3 3135   0.815   1.211   1.576 -1.1970 -0.7297  0.3139
  784SOL    MW4 3136   0.883   1.166   1.608 -0.0404  0.4255 -0.5015
  785SOL     OW 3137   1.113   1.272   1.475  0.4680  0.3698  0.5964
  785SOL    HW2 3138   1.197   1.236   1.501  0.2904 -0.7797 -0.3660
  785SOL    HW3 3139   1.048   1.218   1.521  0.2438  0.6722  0.6378
  785SOL    MW4 3140   1.115   1.260   1.485  0.4150  0.2581  0.4749
  786SOL     OW 3141   1.085   1.530   1.596  0.1173  0.2145 -0.4261
  786SOL    HW2 3142   1.169   1.567   1.569 -0.1999  0.9475 -0.4139
  786SOL    HW3 3143   1.090   1.438   1.570  1.1524  0.1176  0.1057
  786SOL    MW4 3144   1.097   1.523   1.589  0.2120  0.2984 -0.3543
  787SOL     OW 3145   0.896   1.681   1.487  0.4864 -0.0871  0.2807
  787SOL    HW2 3146   0.950   1.620   1.537  2.0400  0.5064 -0.6307
  787SOL    HW3 3147   0.924   1.668   1.396  1.1031  2.2223  0.1088
  787SOL    MW4 3148   0.907   1.671   1.482  0.7727  0.2959  0.1378
  788SOL     OW 3149   0.916   1.933   1.609  0.0105  0.0966 -0.1401
  788SOL    HW2 3150   0.998   1.963   1.568 -0.5026  1.1536 -0.3925
  788SOL    HW3 3151   0.894   1.853   1.562  1.7582 -1.0854  0.9962
  788SOL    MW4 3152   0.924   1.927   1.597  0.1734  0.0801 -0.0235
  789SOL     OW 3153   1.144   2.023   1.497 -0.2979 -0.0982 -0.1064
  789SOL    HW2 3154   1.216   1.971   1.532  0.4979  0.0198 -1.5213
  789SOL    HW3 3155   1.159   2.111   1.531  1.1820  0.2952 -1.7271
  789SOL    MW4 3156   1.155   2.028   1.506  0.0024 -0.0307 -0.5069
  790SOL     OW 3157   1.122   2.287   1.578 -0.7692 -0.5450  0.2897
  790SOL    HW2 3158   1.189   2.329   1.525 -0.5096 -0.8948  0.3418
  790SOL    HW3 3159   1.041   2.335   1.557 -0.4966 -0.0952  0.2639
  790SOL    MW4 3160   1.120   2.299   1.568 -0.6990 -0.5318  0.2932
  791SOL     OW 3161   0.876   2.437   1.527 -0.2161 -0.1992  0.1207
  791SOL    HW2 3162   0.884   2.527   1.559 -0.3403  0.1622 -0.8443
  791SOL    HW3 3163   0.807   2.399   1.580  0.0515  0.1797  0.7477
  791SOL    MW4 3164   0.868   2.444   1.538 -0.1972 -0.1016  0.0761
  792SOL     OW 3165   0.887   2.738   1.571 -0.2231  0.5796 -0.0460
  792SOL    HW2 3166   0.885   2.741   1.667  0.5480 -0.2668  0.0080
  792SOL    HW3 3167   0.803   2.774   1.543 -0.5711  0.5448  0.9574
  792SOL    MW4 3168   0.876   2.743   1.580 -0.1672  0.4633  0.0935
  793SOL     OW 3169   1.127   2.871   1.474 -0.1038  0.1158  0.5606
  793SOL    HW2 3170   1.131   2.950   1.527 -0.8700  0.5990 -0.0838
  793SOL    HW3 3171   1.045   2.829   1.499 -0.5272  0.4065 -0.3060
  793SOL    MW4 3172   1.117   2.876   1.484 -0.2608  0.2179  0.3613
  794SOL     OW 3173   1.122   3.120   1.609 -0.3198  0.3444  0.0982
  794SOL    HW2 3174   1.122   3.116   1.704  0.0282 -1.9965  0.0273
  794SOL    HW3 3175   1.211   3.145   1.585 -0.4312  1.0163  0.3870
  794SOL    MW4 3176   1.133   3.123   1.618 -0.2886  0.1242  0.1269
  795SOL     OW 3177   0.901   3.249   1.498 -0.1378  0.2539  0.3497
  795SOL    HW2 3178   0.975   3.192   1.521 -1.2923 -1.5944 -0.3383
  795SOL    HW3 3179   0.896   3.243   1.402 -1.7136 -0.3438  0.4602
  795SOL    MW4 3180   0.910   3.240   1.488 -0.4981 -0.0688  0.2735
  796SOL     OW 3181   0.907   3.503   1.624 -0.1502 -0.0191  0.1502
  796SOL    HW2 3182   0.982   3.549   1.586  0.0799  0.0986  0.7495
  796SOL    HW3 3183   0.911   3.415   1.587 -0.2796  0.2787 -0.5795
  796SOL    MW4 3184   0.917   3.497   1.614 -0.1369  0.0357  0.1330
  797SOL     OW 3185   1.152   3.614   1.540 -0.7399 -0.8982 -0.1902
  797SOL    HW2 3186   1.226   3.559   1.565 -0.9814 -0.9669  0.3622
  797SOL    HW3 3187   1.152   3.610   1.444  1.6029  1.2147 -0.3445
  797SOL    MW4 3188   1.162   3.606   1.530 -0.4626 -0.6285 -0.1376
  798SOL     OW 3189   1.168   3.865   1.664 -0.1979  0.0516  0.3622
  798SOL    HW2 3190   1.231   3.910   1.608 -0.0934  0.6427  0.9501
  798SOL    HW3 3191   1.153   3.781   1.620 -1.9932  1.4889 -1.8883
  798SOL    MW4 3192   1.174   3.860   1.650 -0.4210  0.3192  0.1428
  799SOL     OW 3193   0.936   3.966   1.537  0.6518 -0.0131 -0.2682
  799SOL    HW2 3194   0.943   4.059   1.556 -0.0626  0.3905 -1.8957
  799SOL    HW3 3195   1.014   3.927   1.576  0.6046  1.1497  1.0325
  799SOL    MW4 3196   0.947   3.973   1.545  0.5513  0.1936 -0.3113
  800SOL     OW 3197   0.942   4.255   1.576 -0.2514 -0.1699  0.0192
  800SOL    HW2 3198   0.948   4.252   1.671 -1.2853 -0.1242  0.0943
  800SOL    HW3 3199   0.859   4.300   1.559  0.3857  0.6824 -0.9068
  800SOL    MW4 3200   0.932   4.261   1.586 -0.3038 -0.0514 -0.0931
  801SOL     OW 3201   1.154   4.397   1.471 -0.5196 -0.0168  0.0268
  801SOL    HW2 3202   1.086   4.345   1.513 -0.4888 -0.0562  0.0292
  801SOL    HW3 3203   1.124   4.487   1.478 -0.5297 -0.0267  0.1059
  801SOL    MW4 3204   1.141   4.402   1.478 -0.5169 -0.0233  0.0376
  802SOL     OW 3205   1.571   4.649   1.544  0.1450 -0.0531 -0.1999
  802SOL    HW2 3206   1.573   4.672   1.637  1.1828  0.6223 -0.3711
  802SOL    HW3 3207   1.499   4.700   1.508 -1.5797 -1.8687  0.6057
  802SOL    MW4 3208   1.562   4.659   1.552  0.0544 -0.2035 -0.1162
  803SOL     OW 3209   1.356   0.124   1.473 -0.5339 -0.6879  0.0921
  803SOL    HW2 3210   1.349   0.214   1.505 -2.7980 -0.9354  0.3846
  803SOL    HW3 3211   1.347   0.132   1.378 -1.7437 -0.6924  0.2020
  803SOL    MW4 3212   1.354   0.137   1.465 -0.9923 -0.7211  0.1452
  804SOL     OW 3213   1.341   0.375   1.576 -0.1675 -0.1945  0.0098
  804SOL    HW2 3214   1.416   0.433   1.559 -1.6138  2.0632  1.0462
  804SOL    HW3 3215   1.268   0.415   1.527 -0.8260 -2.1296 -0.6558
  804SOL    MW4 3216   1.341   0.388   1.567 -0.4452 -0.1520  0.0587
  805SOL     OW 3217   1.577   0.514   1.492  0.0614  0.0561  0.3660
  805SOL    HW2 3218   1.653   0.464   1.520  0.5059  1.4984  1.8443
  805SOL    HW3 3219   1.579   0.511   1.396  0.5706 -1.9634  0.4345
  805SOL    MW4 3220   1.587   0.507   1.483  0.1873 -0.0200  0.5701
  806SOL     OW 3221   1.590   0.788   1.553  0.4422  0.1382  0.1559
  806SOL    HW2 3222   1.593   0.788   1.648 -0.6862 -2.3628  0.2392
  806SOL    HW3 3223   1.599   0.695   1.529  0.9577  0.7646 -2.1620
  806SOL    MW4 3224   1.591   0.775   1.562  0.3613 -0.1091 -0.1389
  807SOL     OW 3225   1.345   0.898   1.495 -0.7335 -0.4237  0.2100
  807SOL    HW2 3226   1.428   0.862   1.526  0.2156  0.6840 -0.9893
  807SOL    HW3 3227   1.340   0.870   1.404 -1.5958 -0.3331  0.2296
  807SOL    MW4 3228   1.355   0.890   1.487 -0.7221 -0.2656  0.0543
  808SOL     OW 3229   1.350   1.174   1.575  0.2945 -0.3120  0.0399
  808SOL    HW2 3230   1.360   1.175   1.670  0.0273 -1.0871  0.0761
  808SOL    HW3 3231   1.353   1.081   1.551 -1.1265 -0.2168 -0.5434
  808SOL    MW4 3232   1.352   1.162   1.585  0.0718 -0.4017 -0.0323
  809SOL     OW 3233   1.604   1.279   1.522 -0.2701  0.3142 -0.1790
  809SOL    HW2 3234   1.519   1.239   1.539  0.4007 -0.4718  1.4414
  809SOL    HW3 3235   1.609   1.285   1.427 -1.6421 -0.7205 -0.3281
  809SOL    MW4 3236   1.593   1.274   1.512 -0.3626  0.0740  0.0151
  810SOL     OW 3237   1.603   1.553   1.551 -0.7200  0.0347  0.4087
  810SOL    HW2 3238   1.608   1.564   1.646 -1.8703  1.0713  0.3611
  810SOL    HW3 3239   1.582   1.460   1.539  1.8374 -0.6589  1.0709
  810SOL    MW4 3240   1.601   1.542   1.562 -0.5344  0.0800  0.4898
  811SOL     OW 3241   1.329   1.634   1.508  0.6716 -0.6197 -0.1909
  811SOL    HW2 3242   1.413   1.595   1.534  0.1729 -1.6779 -0.1315
  811SOL    HW3 3243   1.328   1.628   1.413  0.9073 -0.0777 -0.2314
  811SOL    MW4 3244   1.340   1.628   1.499  0.6369 -0.6878 -0.1884
  812SOL     OW 3245   1.355   1.892   1.602 -0.8593  0.0470  0.2398
  812SOL    HW2 3246   1.357   1.886   1.697 -1.0204  1.5613  0.3466
  812SOL    HW3 3247   1.343   1.801   1.573  0.8355 -0.6447  1.5954
  812SOL    MW4 3248   1.354   1.879   1.611 -0.6569  0.1556  0.4328
  813SOL     OW 3249   1.561   2.058   1.510  0.2297  0.6440 -0.4276
  813SOL    HW2 3250   1.489   2.002   1.540  0.4860  0.0683 -0.8732
  813SOL    HW3 3251   1.561   2.048   1.415  0.3007  1.3762 -0.5038
  813SOL    MW4 3252   1.551   2.049   1.502  0.2729  0.6647 -0.4965
  814SOL     OW 3253   1.556   2.317   1.604 -0.1826  0.4605  0.3791
  814SOL    HW2 3254   1.643   2.353   1.584  0.1051 -0.1955  0.4554
  814SOL    HW3 3255   1.560   2.227   1.573 -0.9855  0.5595 -0.0118
  814SOL    MW4 3256   1.568   2.310   1.597 -0.2506  0.3870  0.3376
  815SOL     OW 3257   1.326   2.442   1.465 -0.0395 -0.6729  0.0544
  815SOL    HW2 3258   1.321   2.529   1.505 -2.2494 -0.5581 -0.4364
  815SOL    HW3 3259   1.406   2.404   1.502 -0.1588  0.7625  1.8698
  815SOL    MW4 3260   1.336   2.449   1.475 -0.3468 -0.4683  0.2292
  816SOL     OW 3261   1.315   2.701   1.575  0.3123 -0.6801 -0.3205
  816SOL    HW2 3262   1.397   2.744   1.550  1.3877 -2.4632  0.0407
  816SOL    HW3 3263   1.247   2.759   1.541  1.7123  0.3029 -1.5662
  816SOL    MW4 3264   1.317   2.715   1.567  0.6389 -0.7857 -0.4372
  817SOL     OW 3265   1.557   2.824   1.500  0.1823 -0.0440 -0.1340
  817SOL    HW2 3266   1.637   2.780   1.529  0.1261 -0.6484 -0.8743
  817SOL    HW3 3267   1.567   2.831   1.405 -0.4268  0.3133 -0.1738
  817SOL    MW4 3268   1.569   2.819   1.492  0.0945 -0.0766 -0.2369
  818SOL     OW 3269   1.600   3.095   1.605 -0.2095  0.3500 -0.2224
  818SOL    HW2 3270   1.658   3.136   1.541 -1.8282 -0.0510 -1.9923
  818SOL    HW3 3271   1.596   3.003   1.578 -0.1691 -0.0305  1.0286
  818SOL    MW4 3272   1.608   3.088   1.593 -0.4177  0.2469 -0.2909
  819SOL     OW 3273   1.370   3.213   1.496  0.2467  0.0481 -0.1455
  819SOL    HW2 3274   1.378   3.301   1.533  1.8254  0.2876 -1.0393
  819SOL    HW3 3275   1.449   3.167   1.525  0.1051 -0.6448 -0.8451
  819SOL    MW4 3276   1.381   3.218   1.505  0.4363 -0.0117 -0.3557
  820SOL     OW 3277   1.388   3.470   1.607 -0.2789  0.5930 -0.2578
  820SOL    HW2 3278   1.405   3.445   1.698 -1.4735  0.4082 -0.0814
  820SOL    HW3 3279   1.466   3.518   1.580 -0.5155  1.8657  1.3179
  820SOL    MW4 3280   1.401   3.473   1.615 -0.4677  0.7366 -0.0267
  821SOL     OW 3281   1.585   3.618   1.500  0.2862 -0.3207  0.2888
  821SOL    HW2 3282   1.570   3.710   1.520  0.9094 -0.2419  0.3846
  821SOL    HW3 3283   1.552   3.608   1.410 -0.3988 -0.1651  0.5146
  821SOL    MW4 3284   1.578   3.629   1.491  0.2780 -0.2898  0.3312
  822SOL     OW 3285   1.600   3.916   1.585 -0.1673  0.3208 -0.0692
  822SOL    HW2 3286   1.583   3.907   1.679 -0.5353  2.0825  0.0469
  822SOL    HW3 3287   1.514   3.931   1.546 -0.1642 -1.5874 -0.8515
  822SOL    MW4 3288   1.586   3.917   1.592 -0.2154  0.3015 -0.1571
  823SOL     OW 3289   1.356   3.981   1.481 -0.0619 -0.4623 -0.2091
  823SOL    HW2 3290   1.357   4.073   1.505 -0.6668 -0.6599  0.6152
  823SOL    HW3 3291   1.358   3.980   1.385  0.2180  0.3956 -0.2074
  823SOL    MW4 3292   1.357   3.993   1.471 -0.1048 -0.3752 -0.1001
  824SOL     OW 3293   1.365   4.229   1.593  0.8115 -0.2641  0.5843
  824SOL    HW2 3294   1.445   4.276   1.569  1.1958 -0.2774  1.8054
  824SOL    HW3 3295   1.295   4.279   1.552  1.4063  0.0114 -0.1157
  824SOL    MW4 3296   1.367   4.242   1.585  0.9407 -0.2295  0.6531
  825SOL     OW 3297   1.575   4.372   1.499  0.1944  0.6853 -0.4704
  825SOL    HW2 3298   1.658   4.343   1.535  0.2552  1.5887  0.1410
  825SOL    HW3 3299   1.572   4.466   1.517 -0.5705  0.8252 -1.2544
  825SOL    MW4 3300   1.585   4.381   1.506  0.1015  0.8230 -0.4932
  826SOL     OW 3301   1.989   4.649   1.564 -0.2763  0.2553 -0.5210
  826SOL    HW2 3302   2.009   4.666   1.656  2.6194  0.9737 -1.1945
  826SOL    HW3 3303   1.926   4.717   1.540 -1.7319 -0.4962  1.1457
  826SOL    MW4 3304   1.984   4.660   1.573 -0.0863  0.2509 -0.3900
  827SOL     OW 3305   1.791   0.151   1.476 -0.0768  0.4852  0.0153
  827SOL    HW2 3306   1.724   0.086   1.498 -0.7843  1.3735  0.4984
  827SOL    HW3 3307   1.787   0.158   1.381  0.7046 -0.9199 -0.1389
  827SOL    MW4 3308   1.782   0.143   1.466 -0.0671  0.4170  0.0587
  828SOL     OW 3309   1.820   0.379   1.616  0.5185 -0.1276  0.5090
  828SOL    HW2 3310   1.901   0.413   1.579 -0.3894 -0.0063 -1.4570
  828SOL    HW3 3311   1.809   0.293   1.574 -0.9615  0.3660 -0.1627
  828SOL    MW4 3312   1.829   0.372   1.606  0.2034 -0.0465  0.1610
  829SOL     OW 3313   2.022   0.504   1.499  0.0846  0.5597  0.2005
  829SOL    HW2 3314   2.096   0.461   1.541  0.8239 -0.3071 -1.9129
  829SOL    HW3 3315   2.028   0.595   1.525  1.6808  0.4126  0.3654
  829SOL    MW4 3316   2.032   0.510   1.508  0.3928  0.4259 -0.0566
  830SOL     OW 3317   2.034   0.746   1.640  0.0381  0.2929  0.1657
  830SOL    HW2 3318   2.109   0.790   1.600  0.0861  2.4251  2.4354
  830SOL    HW3 3319   1.958   0.780   1.593  0.2546  0.9193  0.2604
  830SOL    MW4 3320   2.034   0.756   1.629  0.0730  0.6569  0.4776
  831SOL     OW 3321   1.835   0.910   1.484  0.1991 -0.1431  0.4827
  831SOL    HW2 3322   1.833   0.993   1.531 -1.5875  0.6120 -0.8659
  831SOL    HW3 3323   1.755   0.865   1.510  0.2377 -0.6346 -0.2190
  831SOL    MW4 3324   1.824   0.915   1.494 -0.0315 -0.1083  0.2122
  832SOL     OW 3325   1.833   1.140   1.629 -0.2641  0.0244  0.8375
  832SOL    HW2 3326   1.908   1.184   1.589 -0.7429 -0.3377 -0.5067
  832SOL    HW3 3327   1.757   1.185   1.594 -0.7002 -0.4892  1.1148
  832SOL    MW4 3328   1.833   1.152   1.619 -0.3848 -0.0911  0.6968
  833SOL     OW 3329   2.038   1.280   1.515  0.5800  0.7042 -0.4212
  833SOL    HW2 3330   2.027   1.372   1.539 -2.2800  0.6150 -1.2089
  833SOL    HW3 3331   2.058   1.282   1.422 -1.0699  0.4698 -0.7885
  833SOL    MW4 3332   2.039   1.292   1.506 -0.0150  0.6615 -0.5736
  834SOL     OW 3333   2.025   1.545   1.591 -0.0937  0.2519 -0.0616
  834SOL    HW2 3334   2.113   1.580   1.574 -0.1071  1.6221  2.4254
  834SOL    HW3 3335   1.968   1.594   1.532  0.5180  1.0638  0.0055
  834SOL    MW4 3336   2.029   1.556   1.581 -0.0147  0.5398  0.2754
  835SOL     OW 3337   1.828   1.698   1.471  0.0481  0.0537 -0.1213
  835SOL    HW2 3338   1.762   1.633   1.495 -0.5369  0.9978  0.8130
  835SOL    HW3 3339   1.821   1.706   1.376  0.3460 -1.4844 -0.2846
  835SOL    MW4 3340   1.819   1.690   1.461  0.0102 -0.0247 -0.0196
  836SOL     OW 3341   1.777   1.926   1.632 -0.6603 -0.2777  0.2788
  836SOL    HW2 3342   1.779   1.843   1.586 -0.6976  0.3644 -0.8870
  836SOL    HW3 3343   1.703   1.974   1.594 -0.5325  0.3618  0.8134
  836SOL    MW4 3344   1.767   1.922   1.621 -0.6483 -0.1086  0.1955
  837SOL     OW 3345   2.014   2.018   1.521  0.4579 -0.7288 -0.3082
  837SOL    HW2 3346   2.091   1.975   1.560  0.3396  0.5699  1.4268
  837SOL    HW3 3347   1.940   1.988   1.574  0.1818  0.4238 -0.0184
  837SOL    MW4 3348   2.014   2.008   1.533  0.4059 -0.4053 -0.0410
  838SOL     OW 3349   2.037   2.310   1.593  0.7936 -0.1683  0.5245
  838SOL    HW2 3350   2.053   2.309   1.688 -0.4984 -0.9404  0.7556
  838SOL    HW3 3351   2.038   2.217   1.568  2.5697  0.1010 -0.4886
  838SOL    MW4 3352   2.039   2.298   1.602  0.8575 -0.2346  0.4213
  839SOL     OW 3353   1.791   2.424   1.511 -0.1929 -0.1712 -0.0543
  839SOL    HW2 3354   1.878   2.395   1.539 -0.2456 -0.8089 -0.5354
  839SOL    HW3 3355   1.789   2.404   1.417 -0.1086  1.6998 -0.4625
  839SOL    MW4 3356   1.802   2.417   1.502 -0.1887 -0.0085 -0.1717
  840SOL     OW 3357   1.798   2.698   1.570 -0.0804  0.1512 -0.8876
  840SOL    HW2 3358   1.887   2.727   1.551  0.9507 -1.9758  0.4656
  840SOL    HW3 3359   1.801   2.603   1.557 -2.1725  0.0777 -0.9297
  840SOL    MW4 3360   1.810   2.689   1.566 -0.2204 -0.1391 -0.7146
  841SOL     OW 3361   2.045   2.799   1.499 -0.3487 -0.0666 -0.3876
  841SOL    HW2 3362   2.028   2.889   1.525  0.1056 -0.1695  0.2788
  841SOL    HW3 3363   2.039   2.800   1.403 -2.0106  0.3149 -0.2886
  841SOL    MW4 3364   2.042   2.811   1.490 -0.5080 -0.0298 -0.2866
  842SOL     OW 3365   2.015   3.063   1.592 -0.8948  0.0774 -0.0217
  842SOL    HW2 3366   2.022   3.068   1.688 -0.3986  0.2294 -0.0661
  842SOL    HW3 3367   2.097   3.100   1.560 -1.4514  0.8871 -0.5220
  842SOL    MW4 3368   2.026   3.068   1.601 -0.9028  0.2043 -0.0936
  843SOL     OW 3369   1.808   3.228   1.454  0.5220  0.1392 -0.1499
  843SOL    HW2 3370   1.802   3.316   1.489 -0.6845 -0.2535  0.6584
  843SOL    HW3 3371   1.879   3.187   1.505 -0.8319 -0.2448  1.4522
  843SOL    MW4 3372   1.817   3.234   1.466  0.1842  0.0367  0.1681
  844SOL     OW 3373   1.794   3.468   1.567  0.5570 -0.3407  0.4349
  844SOL    HW2 3374   1.777   3.476   1.661 -0.0824  0.2195  0.2789
  844SOL    HW3 3375   1.722   3.516   1.526  0.6371 -0.8914 -0.3497
  844SOL    MW4 3376   1.782   3.476   1.574  0.4832 -0.3395  0.3108
  845SOL     OW 3377   2.014   3.607   1.494 -0.2798 -0.0644 -0.5734
  845SOL    HW2 3378   2.090   3.558   1.527 -0.7072  0.1231  0.7092
  845SOL    HW3 3379   1.939   3.551   1.512 -0.5967  0.3491 -0.6088
  845SOL    MW4 3380   2.014   3.594   1.501 -0.3780  0.0149 -0.4089
  846SOL     OW 3381   2.046   3.864   1.646 -0.2478  0.0451 -0.1940
  846SOL    HW2 3382   2.123   3.900   1.600 -0.8703 -1.2329 -2.3090
  846SOL    HW3 3383   2.025   3.785   1.598 -0.4050 -1.8831  2.9238
  846SOL    MW4 3384   2.054   3.859   1.633 -0.3507 -0.3779 -0.0617
  847SOL     OW 3385   1.862   4.004   1.512 -0.2060  0.0606 -0.2513
  847SOL    HW2 3386   1.925   3.949   1.560 -0.5683 -0.1062  0.0348
  847SOL    HW3 3387   1.777   3.966   1.533 -0.3314 -0.3427 -1.4593
  847SOL    MW4 3388   1.859   3.992   1.521 -0.2703 -0.0146 -0.3729
  848SOL     OW 3389   1.815   4.264   1.616  0.2886  0.5018 -0.0398
  848SOL    HW2 3390   1.878   4.318   1.569  2.0724 -1.7987 -0.4187
  848SOL    HW3 3391   1.836   4.174   1.590 -1.1190 -0.5553  2.2589
  848SOL    MW4 3392   1.826   4.259   1.607  0.3382  0.0588  0.2135
  849SOL     OW 3393   1.990   4.413   1.440 -0.5449 -0.3431 -0.2665
  849SOL    HW2 3394   2.066   4.359   1.463  0.3100  0.9653  0.0408
  849SOL    HW3 3395   1.998   4.490   1.496 -0.3635  1.2642 -2.4512
  849SOL    MW4 3396   2.001   4.416   1.451 -0.4082  0.0416 -0.5142
  850SOL     OW 3397   2.460   4.627   1.569  0.2087 -0.0046  0.6394
  850SOL    HW2 3398   2.449   4.621   1.664 -0.4076 -0.7659  0.5301
  850SOL    HW3 3399   2.374   4.655   1.537  0.3425  0.0039  0.2890
  850SOL    MW4 3400   2.447   4.630   1.577  0.1450 -0.1039  0.5787
  851SOL     OW 3401   2.241   0.111   1.473 -0.4966  0.0341  0.3568
  851SOL    HW2 3402   2.155   0.073   1.494 -0.4362 -0.6705 -0.6607
  851SOL    HW3 3403   2.237   0.128   1.379  0.3580  0.3190  0.3733
  851SOL    MW4 3404   2.229   0.108   1.463 -0.3759 -0.0213  0.2247
  852SOL     OW 3405   2.228   0.359   1.569 -0.5403  0.0166 -0.1134
  852SOL    HW2 3406   2.236   0.348   1.664  3.1516  1.3920 -0.1746
  852SOL    HW3 3407   2.240   0.271   1.534  1.0909 -0.0875  0.6253
  852SOL    MW4 3408   2.231   0.346   1.577  0.1620  0.1843 -0.0240
  853SOL     OW 3409   2.464   0.469   1.482 -0.0034  0.6186 -0.3087
  853SOL    HW2 3410   2.546   0.434   1.518  0.3310  0.2091 -1.4275
  853SOL    HW3 3411   2.395   0.421   1.528  0.3910  0.9047  0.5777
  853SOL    MW4 3412   2.466   0.458   1.493  0.0928  0.6023 -0.3394
  854SOL     OW 3413   2.472   0.718   1.607  0.0528  0.0294  0.5118
  854SOL    HW2 3414   2.399   0.763   1.564  0.3554  0.1784  0.1526
  854SOL    HW3 3415   2.468   0.629   1.572  0.4207  0.2031  0.0129
  854SOL    MW4 3416   2.462   0.712   1.597  0.1413  0.0719  0.3986
  855SOL     OW 3417   2.260   0.863   1.517  0.0485  0.5189 -0.0530
  855SOL    HW2 3418   2.251   0.950   1.556  0.9220  0.7526 -0.3611
  855SOL    HW3 3419   2.252   0.878   1.423 -0.5636  0.1606 -0.0593
  855SOL    MW4 3420   2.258   0.876   1.509  0.0829  0.5024 -0.0945
  856SOL     OW 3421   2.230   1.119   1.633 -0.2035 -0.1305  0.2073
  856SOL    HW2 3422   2.227   1.135   1.727 -1.5976 -0.5276  0.2266
  856SOL    HW3 3423   2.160   1.173   1.597  0.2696 -0.0413 -0.6045
  856SOL    MW4 3424   2.221   1.128   1.641 -0.3250 -0.1711  0.1028
  857SOL     OW 3425   2.496   1.212   1.571  0.3796 -0.2445 -0.0568
  857SOL    HW2 3426   2.413   1.175   1.600  0.1825 -0.0688 -0.3881
  857SOL    HW3 3427   2.485   1.224   1.476  0.4349  0.6461  0.0449
  857SOL    MW4 3428   2.484   1.209   1.562  0.3609 -0.1038 -0.0871
  858SOL     OW 3429   2.476   1.502   1.598  0.2937  0.1419 -0.3262
  858SOL    HW2 3430   2.553   1.539   1.556 -0.5301  1.0417 -1.0525
  858SOL    HW3 3431   2.492   1.407   1.598  0.8557  0.2278 -1.5710
  858SOL    MW4 3432   2.488   1.494   1.592  0.2592  0.2719 -0.5862
  859SOL     OW 3433   2.275   1.653   1.522  0.4215  0.3730  0.1483
  859SOL    HW2 3434   2.354   1.603   1.542 -0.0637 -0.5650 -0.2968
  859SOL    HW3 3435   2.274   1.659   1.427 -0.0743  0.3341  0.1489
  859SOL    MW4 3436   2.285   1.647   1.512  0.2921  0.2441  0.0897
  860SOL     OW 3437   2.267   1.913   1.582  0.3122  0.0268 -0.1412
  860SOL    HW2 3438   2.284   1.917   1.676  1.1908  1.3938 -0.3442
  860SOL    HW3 3439   2.277   1.820   1.560  0.3988 -0.2547  1.0590
  860SOL    MW4 3440   2.271   1.901   1.591  0.4396  0.1700 -0.0097
  861SOL     OW 3441   2.494   2.038   1.528  0.1300  0.0474 -0.0004
  861SOL    HW2 3442   2.413   1.989   1.542  0.5126 -0.7325 -0.4233
  861SOL    HW3 3443   2.491   2.063   1.435  0.3216  0.1054  0.0085
  861SOL    MW4 3444   2.483   2.035   1.517  0.2058 -0.0478 -0.0550
  862SOL     OW 3445   2.500   2.299   1.625  0.2645 -0.0527  0.5576
  862SOL    HW2 3446   2.509   2.291   1.720 -1.4809 -0.8159  0.6850
  862SOL    HW3 3447   2.517   2.211   1.592  3.2723  0.7083 -0.0947
  862SOL    MW4 3448   2.503   2.287   1.634  0.4311 -0.0530  0.4883
  863SOL     OW 3449   2.288   2.425   1.483  0.6474  0.3557  0.0673
  863SOL    HW2 3450   2.354   2.399   1.547  0.3594  1.8650  0.9887
  863SOL    HW3 3451   2.211   2.373   1.506  1.0554 -0.3459 -0.1216
  863SOL    MW4 3452   2.286   2.414   1.494  0.6632  0.4623  0.1639
  864SOL     OW 3453   2.263   2.681   1.633  0.1038 -0.4183  0.3710
  864SOL    HW2 3454   2.240   2.592   1.607 -1.0072  0.4533 -1.7712
  864SOL    HW3 3455   2.201   2.736   1.585  0.6732  1.4952  1.7940
  864SOL    MW4 3456   2.251   2.676   1.623  0.0324 -0.0508  0.2761
  865SOL     OW 3457   2.471   2.811   1.507 -0.8818  0.7601  0.1530
  865SOL    HW2 3458   2.487   2.885   1.566  1.8005 -0.2271  0.7406
  865SOL    HW3 3459   2.414   2.753   1.556  0.4779  0.4421  1.3840
  865SOL    MW4 3460   2.466   2.813   1.521 -0.3485  0.5879  0.3929
  866SOL     OW 3461   2.477   3.047   1.639  0.7188  0.1001 -0.0292
  866SOL    HW2 3462   2.548   3.107   1.617  0.4955 -0.3793 -2.1423
  866SOL    HW3 3463   2.399   3.086   1.598  0.2379 -0.7046  0.1098
  866SOL    MW4 3464   2.476   3.060   1.631  0.6259 -0.0693 -0.2897
  867SOL     OW 3465   2.263   3.171   1.524  0.2697  0.3847  0.0053
  867SOL    HW2 3466   2.261   3.264   1.546 -0.3217  0.2118  0.7085
  867SOL    HW3 3467   2.265   3.169   1.428  0.7295  1.1233 -0.0059
  867SOL    MW4 3468   2.263   3.183   1.514  0.2524  0.4593  0.0966
  868SOL     OW 3469   2.234   3.454   1.588 -0.3583  0.1369  0.0143
  868SOL    HW2 3470   2.254   3.454   1.682  0.1063  0.4907 -0.0844
  868SOL    HW3 3471   2.312   3.490   1.547  0.2270 -1.8859 -0.6975
  868SOL    MW4 3472   2.247   3.459   1.595 -0.2198 -0.0833 -0.0927
  869SOL     OW 3473   2.455   3.572   1.479  0.4191 -0.8713  0.1417
  869SOL    HW2 3474   2.527   3.535   1.530 -0.1163 -1.9329  0.1610
  869SOL    HW3 3475   2.444   3.661   1.513  1.3094 -0.9221  0.5666
  869SOL    MW4 3476   2.463   3.579   1.490  0.4659 -1.0181  0.2003
  870SOL     OW 3477   2.452   3.849   1.564 -0.2534 -0.4289  0.3546
  870SOL    HW2 3478   2.471   3.846   1.658 -0.0209  1.5811  0.3852
  870SOL    HW3 3479   2.528   3.892   1.526 -1.1103  0.2912 -0.5509
  870SOL    MW4 3480   2.465   3.854   1.571 -0.3358 -0.0687  0.2392
  871SOL     OW 3481   2.242   4.007   1.492 -0.0553  0.2926  0.2178
  871SOL    HW2 3482   2.318   3.953   1.512  0.0631 -0.4178 -1.9925
  871SOL    HW3 3483   2.239   4.010   1.396 -1.5506  2.1041  0.2873
  871SOL    MW4 3484   2.251   4.000   1.482 -0.2369  0.4379 -0.0646
  872SOL     OW 3485   2.195   4.268   1.565  0.1265 -0.4408 -0.1742
  872SOL    HW2 3486   2.280   4.310   1.556  0.5077 -1.2007 -0.1036
  872SOL    HW3 3487   2.210   4.177   1.543  0.1543 -1.4463  3.5614
  872SOL    MW4 3488   2.208   4.262   1.561  0.1805 -0.6737  0.3280
  873SOL     OW 3489   2.447   4.356   1.519  0.0502 -0.2175  0.3505
  873SOL    HW2 3490   2.471   4.446   1.542 -0.7999 -0.1478  0.9776
  873SOL    HW3 3491   2.454   4.353   1.424 -1.2844  0.9235  0.1927
  873SOL    MW4 3492   2.451   4.367   1.510 -0.2380 -0.0578  0.4124
  874SOL     OW 3493   2.892   4.644   1.588  0.4906 -0.1514  0.2521
  874SOL    HW2 3494   2.898   4.642   1.683  1.6723 -2.4105  0.1574
  874SOL    HW3 3495   2.812   4.694   1.570  0.3516  0.4345  2.4093
  874SOL    MW4 3496   2.882   4.651   1.598  0.6282 -0.3722  0.5242
  875SOL     OW 3497   2.674   0.111   1.503  0.0879  0.5366  0.1155
  875SOL    HW2 3498   2.681   0.197   1.543  0.2995  0.1955  0.8136
  875SOL    HW3 3499   2.587   0.080   1.529  0.2230  0.3186  0.3052
  875SOL    MW4 3500   2.664   0.118   1.512  0.1336  0.4628  0.2326
  876SOL     OW 3501   2.687   0.361   1.623  0.2905  0.2495  0.2925
  876SOL    HW2 3502   2.690   0.347   1.717  0.8605 -0.6224  0.1530
  876SOL    HW3 3503   2.768   0.408   1.603  0.9248 -0.9265  0.0336
  876SOL    MW4 3504   2.698   0.365   1.633  0.4494 -0.0207  0.2400
  877SOL     OW 3505   2.946   0.473   1.523  0.3596  0.5715  0.0658
  877SOL    HW2 3506   2.938   0.565   1.548 -0.0868  0.8243 -1.0019
  877SOL    HW3 3507   2.941   0.473   1.428  1.4580 -0.4500 -0.0113
  877SOL    MW4 3508   2.945   0.485   1.514  0.4456  0.4701 -0.0852
  878SOL     OW 3509   2.923   0.752   1.636  0.3938  0.0705 -0.5837
  878SOL    HW2 3510   2.893   0.753   1.727  0.4174 -1.3073 -0.5514
  878SOL    HW3 3511   2.848   0.786   1.586 -0.2115 -0.7121 -0.2208
  878SOL    MW4 3512   2.909   0.757   1.642  0.3171 -0.2145 -0.5316
  879SOL     OW 3513   2.696   0.866   1.509 -0.0788  0.1467  0.3369
  879SOL    HW2 3514   2.616   0.819   1.532  0.1985 -1.8153 -2.4471
  879SOL    HW3 3515   2.685   0.887   1.416  2.4347  0.2026  0.0229
  879SOL    MW4 3516   2.684   0.863   1.499  0.2894 -0.1048 -0.0718
  880SOL     OW 3517   2.752   1.110   1.630 -0.1485  0.1143  0.5723
  880SOL    HW2 3518   2.741   1.023   1.593 -1.4691  0.1123  0.9393
  880SOL    HW3 3519   2.668   1.154   1.615  0.3596  1.1754  0.7643
  880SOL    MW4 3520   2.739   1.105   1.623 -0.2557  0.2540  0.6461
  881SOL     OW 3521   2.969   1.270   1.512 -0.0139 -0.0751  0.4836
  881SOL    HW2 3522   3.045   1.236   1.559  0.3572 -0.7700 -0.5989
  881SOL    HW3 3523   2.895   1.219   1.545  0.1823 -0.2895  0.5872
  881SOL    MW4 3524   2.969   1.259   1.523  0.0609 -0.1951  0.3545
  882SOL     OW 3525   2.919   1.518   1.624 -0.3573 -0.1930  0.4611
  882SOL    HW2 3526   2.853   1.563   1.571  1.8630  0.5599 -1.7896
  882SOL    HW3 3527   2.945   1.443   1.570  2.8327  1.2794 -0.1721
  882SOL    MW4 3528   2.914   1.514   1.610  0.3565  0.1006  0.0806
  883SOL     OW 3529   2.695   1.628   1.470  0.1364  0.0166 -0.0038
  883SOL    HW2 3530   2.684   1.712   1.516 -1.5509 -0.6490  0.8314
  883SOL    HW3 3531   2.700   1.652   1.378 -1.2047  0.9634  0.1653
  883SOL    MW4 3532   2.694   1.643   1.464 -0.2631  0.0537  0.1287
  884SOL     OW 3533   2.718   1.885   1.612  0.1130  0.1370 -0.5582
  884SOL    HW2 3534   2.732   1.866   1.704  1.7274 -0.5976 -0.9369
  884SOL    HW3 3535   2.637   1.936   1.610  0.8378  1.4073  1.3848
  884SOL    MW4 3536   2.709   1.889   1.624  0.4217  0.2077 -0.3518
  885SOL     OW 3537   2.938   2.018   1.523  0.0846  0.1413  0.1595
  885SOL    HW2 3538   2.947   2.105   1.561  0.1715  0.5271 -0.7402
  885SOL    HW3 3539   2.866   1.978   1.571 -1.0304  1.3059 -0.5294
  885SOL    MW4 3540   2.930   2.024   1.534 -0.0511  0.3458 -0.0501
  886SOL     OW 3541   2.931   2.299   1.635  0.1591 -0.2952  0.0941
  886SOL    HW2 3542   2.917   2.308   1.729  1.7877  4.0973  0.0598
  886SOL    HW3 3543   2.855   2.342   1.596  1.1293  0.9245 -0.4927
  886SOL    MW4 3544   2.919   2.306   1.642  0.5019  0.4453  0.0122
  887SOL     OW 3545   2.732   2.421   1.520 -0.2186 -0.0645 -0.2871
  887SOL    HW2 3546   2.715   2.511   1.547  0.5387  0.2242 -0.7542
  887SOL    HW3 3547   2.651   2.374   1.540 -0.3353  0.5437  0.7223
  887SOL    MW4 3548   2.719   2.427   1.526 -0.1341  0.0538 -0.2155
  888SOL     OW 3549   2.678   2.677   1.616  0.3101  0.3300 -0.0248
  888SOL    HW2 3550   2.752   2.731   1.589  0.8155  0.1670  1.0210
  888SOL    HW3 3551   2.602   2.723   1.580  0.7285  1.7850  0.8990
  888SOL    MW4 3552   2.678   2.690   1.607  0.4320  0.5004  0.2350
  889SOL     OW 3553   2.912   2.816   1.521  0.2390 -0.3289  0.2346
  889SOL    HW2 3554   2.989   2.773   1.558  0.4459  0.9788  1.3661
  889SOL    HW3 3555   2.903   2.897   1.571 -2.4255 -0.8958  0.7613
  889SOL    MW4 3556   2.921   2.821   1.532 -0.0853 -0.2312  0.4534
  890SOL     OW 3557   2.912   3.055   1.666 -0.1550  0.3191  0.4894
  890SOL    HW2 3558   2.925   3.051   1.761 -0.0042  0.0926  0.4585
  890SOL    HW3 3559   2.979   3.117   1.635 -1.5653  2.0479  0.7886
  890SOL    MW4 3560   2.923   3.063   1.675 -0.3212  0.5173  0.5248
  891SOL     OW 3561   2.699   3.197   1.544 -0.1033  0.0340 -0.4050
  891SOL    HW2 3562   2.764   3.142   1.587 -0.8120  1.4485  2.5372
  891SOL    HW3 3563   2.726   3.197   1.452  3.1549 -0.6403  0.4966
  891SOL    MW4 3564   2.711   3.189   1.537  0.2330  0.1316  0.1021
  892SOL     OW 3565   2.670   3.470   1.600 -0.0091 -0.3951  0.6738
  892SOL    HW2 3566   2.675   3.482   1.695 -0.9961 -1.7293  0.9093
  892SOL    HW3 3567   2.691   3.378   1.587 -0.0304 -0.2508 -0.4007
  892SOL    MW4 3568   2.673   3.460   1.611 -0.1421 -0.5521  0.5631
  893SOL     OW 3569   2.910   3.578   1.506 -0.0871 -0.0462  0.1654
  893SOL    HW2 3570   2.826   3.555   1.545 -0.9025  1.0422 -0.9289
  893SOL    HW3 3571   2.893   3.579   1.412  1.2778 -0.3213 -0.0872
  893SOL    MW4 3572   2.897   3.575   1.499 -0.0146  0.0611 -0.0123
  894SOL     OW 3573   2.879   3.842   1.588  0.3000 -0.0573 -0.4070
  894SOL    HW2 3574   2.803   3.882   1.546  0.6772 -0.1094 -1.1397
  894SOL    HW3 3575   2.888   3.756   1.546  0.0400 -0.5522  0.5244
  894SOL    MW4 3576   2.870   3.836   1.577  0.3155 -0.1295 -0.3808
  895SOL     OW 3577   2.681   3.980   1.474 -0.0635  0.3401  0.0082
  895SOL    HW2 3578   2.693   4.060   1.525 -0.4916  0.0013  0.6611
  895SOL    HW3 3579   2.671   4.009   1.384 -2.7195  1.2453  0.5287
  895SOL    MW4 3580   2.681   3.994   1.469 -0.4704  0.4148  0.1630
  896SOL     OW 3581   2.685   4.224   1.577  0.0874  0.2057 -0.2366
  896SOL    HW2 3582   2.744   4.289   1.538 -0.5792  1.2436  0.4771
  896SOL    HW3 3583   2.597   4.259   1.560 -0.2988 -0.9211 -0.5669
  896SOL    MW4 3584   2.681   4.237   1.569 -0.0515  0.1940 -0.1860
  897SOL     OW 3585   2.881   4.370   1.472  0.4102 -0.3664  0.2019
  897SOL    HW2 3586   2.876   4.461   1.500 -2.1824 -0.3959 -0.0428
  897SOL    HW3 3587   2.880   4.373   1.376  1.5934 -0.6127  0.1717
  897SOL    MW4 3588   2.880   4.382   1.463  0.2242 -0.4028  0.1656
  898SOL     OW 3589   3.359   4.640   1.622  0.2230  0.0459 -0.1719
  898SOL    HW2 3590   3.439   4.682   1.590  0.8690 -0.6830  0.4659
  898SOL    HW3 3591   3.347   4.565   1.563  0.9460 -0.8082  0.7396
  898SOL    MW4 3592   3.368   4.635   1.610  0.4036 -0.1630  0.0325
  899SOL     OW 3593   3.137   0.102   1.516  0.0157  0.3298  0.0451
  899SOL    HW2 3594   3.217   0.061   1.548 -0.2506  0.8740  1.4432
  899SOL    HW3 3595   3.067   0.044   1.546 -0.1640  0.2898 -0.4565
  899SOL    MW4 3596   3.138   0.089   1.524 -0.0432  0.3963  0.1634
  900SOL     OW 3597   3.186   0.352   1.617  0.0363  0.4569  0.1460
  900SOL    HW2 3598   3.162   0.270   1.575  2.4207 -0.0003 -0.3845
  900SOL    HW3 3599   3.112   0.411   1.599 -1.1896 -1.2126 -0.4154
  900SOL    MW4 3600   3.173   0.349   1.609  0.1891  0.1763  0.0019
  901SOL     OW 3601   3.385   0.499   1.503 -0.1575  0.2886 -0.0451
  901SOL    HW2 3602   3.317   0.439   1.533  1.1783 -1.2934 -0.1092
  901SOL    HW3 3603   3.373   0.503   1.408 -0.2898  0.1831 -0.0326
  901SOL    MW4 3604   3.375   0.492   1.494  0.0013  0.0660 -0.0519
  902SOL     OW 3605   3.328   0.748   1.621 -0.3113  0.0947  0.2686
  902SOL    HW2 3606   3.331   0.740   1.716 -0.0691  0.1754  0.2676
  902SOL    HW3 3607   3.348   0.660   1.589  0.4743  0.2633  0.2825
  902SOL    MW4 3608   3.331   0.735   1.629 -0.1757  0.1276  0.2703
  903SOL     OW 3609   3.125   0.896   1.509  0.1793 -0.1041 -0.6722
  903SOL    HW2 3610   3.202   0.843   1.531  0.3043 -0.2243 -1.3947
  903SOL    HW3 3611   3.052   0.849   1.549  0.3926 -0.3604 -0.5767
  903SOL    MW4 3612   3.126   0.883   1.517  0.2239 -0.1538 -0.7549
  904SOL     OW 3613   3.176   1.130   1.634  0.0788  0.3372  0.3263
  904SOL    HW2 3614   3.164   1.124   1.729 -0.7799  0.0437  0.2035
  904SOL    HW3 3615   3.154   1.042   1.601 -0.3410  0.6432 -0.2161
  904SOL    MW4 3616   3.172   1.117   1.642 -0.0899  0.3388  0.2386
  905SOL     OW 3617   3.393   1.320   1.545  0.6821 -0.2369  0.1884
  905SOL    HW2 3618   3.469   1.298   1.600  0.7038 -1.6337 -0.3908
  905SOL    HW3 3619   3.327   1.255   1.568 -0.0661  0.4932  0.1084
  905SOL    MW4 3620   3.394   1.309   1.555  0.5862 -0.3249  0.1014
  906SOL     OW 3621   3.374   1.591   1.617 -0.2192 -0.0233  0.4947
  906SOL    HW2 3622   3.373   1.572   1.711 -0.1759  0.1565  0.5321
  906SOL    HW3 3623   3.370   1.505   1.575 -0.1694 -0.1071  0.6612
  906SOL    MW4 3624   3.373   1.578   1.624 -0.2069 -0.0106  0.5216
  907SOL     OW 3625   3.124   1.665   1.493 -0.2564 -0.1944 -0.4484
  907SOL    HW2 3626   3.205   1.637   1.535  0.3123  1.0060 -0.6973
  907SOL    HW3 3627   3.055   1.621   1.542  0.4270  0.6445  1.3247
  907SOL    MW4 3628   3.126   1.656   1.505 -0.0912  0.0747 -0.2473
  908SOL     OW 3629   3.171   1.903   1.634  0.0500 -0.1451 -0.2850
  908SOL    HW2 3630   3.172   1.816   1.594  0.3902 -0.0371 -0.5184
  908SOL    HW3 3631   3.088   1.941   1.607 -1.1120 -1.2128  1.6027
  908SOL    MW4 3632   3.161   1.896   1.625 -0.0584 -0.2717 -0.0667
  909SOL     OW 3633   3.379   2.068   1.536 -0.4966 -0.0403  0.3915
  909SOL    HW2 3634   3.302   2.035   1.581 -1.1297  1.1589  0.2106
  909SOL    HW3 3635   3.359   2.058   1.443 -0.3039 -0.0110  0.3460
  909SOL    MW4 3636   3.366   2.062   1.529 -0.5547  0.1218  0.3616
  910SOL     OW 3637   3.362   2.346   1.658 -0.1022 -0.1342 -0.3208
  910SOL    HW2 3638   3.434   2.382   1.607  1.8788 -1.5423  1.3727
  910SOL    HW3 3639   3.353   2.256   1.625  0.5395 -0.7291  1.0668
  910SOL    MW4 3640   3.371   2.339   1.647  0.2439 -0.3985  0.0857
  911SOL     OW 3641   3.123   2.449   1.530  0.0815  0.2070  0.2698
  911SOL    HW2 3642   3.200   2.414   1.573 -0.2688 -0.5216  0.2993
  911SOL    HW3 3643   3.052   2.390   1.553  0.1716 -1.0970 -2.5349
  911SOL    MW4 3644   3.124   2.437   1.538  0.0471 -0.0612 -0.0963
  912SOL     OW 3645   3.128   2.686   1.662 -0.0494  0.0262  0.0933
  912SOL    HW2 3646   3.181   2.741   1.604 -0.7249  0.1729 -0.3784
  912SOL    HW3 3647   3.130   2.600   1.621 -0.0531 -0.0071  0.1631
  912SOL    MW4 3648   3.136   2.682   1.649 -0.1390  0.0412  0.0403
  913SOL     OW 3649   3.328   2.841   1.519  0.7060 -0.5686  0.0617
  913SOL    HW2 3650   3.335   2.931   1.550 -0.3671 -0.0696 -1.1005
  913SOL    HW3 3651   3.324   2.849   1.424 -3.0779 -1.5364  0.0369
  913SOL    MW4 3652   3.328   2.854   1.511  0.0652 -0.6304 -0.0949
  914SOL     OW 3653   3.377   3.107   1.622 -0.1267 -0.1901  0.2471
  914SOL    HW2 3654   3.376   3.121   1.716  1.1422  0.3246  0.2021
  914SOL    HW3 3655   3.460   3.146   1.593 -0.7538  0.1401 -1.1504
  914SOL    MW4 3656   3.388   3.114   1.630 -0.0420 -0.0787  0.0568
  915SOL     OW 3657   3.119   3.230   1.555  0.3211 -0.2083 -0.0933
  915SOL    HW2 3658   3.205   3.190   1.570  0.5756  0.5457  0.4409
  915SOL    HW3 3659   3.101   3.213   1.462  1.9710  1.4336 -0.7316
  915SOL    MW4 3660   3.128   3.222   1.545  0.5724  0.1078 -0.1070
  916SOL     OW 3661   3.153   3.497   1.606 -0.0231 -0.2219 -0.1949
  916SOL    HW2 3662   3.146   3.404   1.589  0.1062 -0.5262  1.3516
  916SOL    HW3 3663   3.066   3.533   1.587 -0.0744 -0.6532 -0.7696
  916SOL    MW4 3664   3.141   3.490   1.601 -0.0128 -0.3190 -0.0667
  917SOL     OW 3665   3.349   3.612   1.468 -0.2177  0.1831 -0.2195
  917SOL    HW2 3666   3.426   3.575   1.512  0.3182  1.8686  0.3133
  917SOL    HW3 3667   3.275   3.570   1.511  0.3767 -0.2738  0.3739
  917SOL    MW4 3668   3.349   3.602   1.480 -0.0686  0.3452 -0.0709
  918SOL     OW 3669   3.369   3.879   1.559 -0.2662 -0.0032  0.1243
  918SOL    HW2 3670   3.279   3.904   1.539 -0.4365 -0.0281  0.8545
  918SOL    HW3 3671   3.376   3.788   1.528 -0.2943  0.2122 -0.5219
  918SOL    MW4 3672   3.358   3.870   1.552 -0.2924  0.0219  0.1354
  919SOL     OW 3673   3.109   3.963   1.519  0.3728 -0.2970  0.2350
  919SOL    HW2 3674   3.107   4.055   1.545  1.0247 -0.0389 -0.6254
  919SOL    HW3 3675   3.021   3.931   1.538  0.1924  0.4599  0.6916
  919SOL    MW4 3676   3.097   3.970   1.525  0.4350 -0.1631  0.1817
  920SOL     OW 3677   3.102   4.238   1.586  0.1001  0.2423 -0.1731
  920SOL    HW2 3678   3.101   4.244   1.682 -0.9808 -2.1617  0.0012
  920SOL    HW3 3679   3.017   4.274   1.559  0.7983  1.8111 -0.3038
  920SOL    MW4 3680   3.091   4.244   1.595  0.0496  0.1321 -0.1674
  921SOL     OW 3681   3.305   4.392   1.471  0.4274  0.0969 -0.0936
  921SOL    HW2 3682   3.231   4.342   1.505  0.9316 -1.0222 -0.6290
  921SOL    HW3 3683   3.295   4.389   1.376  0.9313  0.2949 -0.1575
  921SOL    MW4 3684   3.294   4.385   1.463  0.5604 -0.0246 -0.1727
  922SOL     OW 3685   3.831   4.662   1.641 -0.3201  0.3928 -0.4034
  922SOL    HW2 3686   3.833   4.671   1.736 -0.2974 -1.0456 -0.2553
  922SOL    HW3 3687   3.910   4.706   1.611 -0.1323  0.5241  0.2727
  922SOL    MW4 3688   3.841   4.669   1.649 -0.2923  0.2204 -0.2946
  923SOL     OW 3689   3.594   0.102   1.542 -0.0580  0.3800  0.2072
  923SOL    HW2 3690   3.678   0.065   1.571  0.3023  0.5331 -0.6371
  923SOL    HW3 3691   3.596   0.095   1.447 -1.4125 -0.4930  0.2314
  923SOL    MW4 3692   3.605   0.096   1.534 -0.1892  0.2850  0.0990
  924SOL     OW 3693   3.588   0.351   1.633 -0.0816 -0.4473  0.2297
  924SOL    HW2 3694   3.581   0.272   1.580 -0.2181  1.6308 -2.9768
  924SOL    HW3 3695   3.517   0.408   1.602  1.4567  1.8481  0.7772
  924SOL    MW4 3696   3.578   0.348   1.622  0.1033  0.1297 -0.1211
  925SOL     OW 3697   3.816   0.493   1.579  0.2973  0.2455  0.2232
  925SOL    HW2 3698   3.748   0.428   1.595 -0.5090  1.0710  0.1811
  925SOL    HW3 3699   3.809   0.512   1.485  0.7050  0.2067  0.1839
  925SOL    MW4 3700   3.806   0.487   1.568  0.2447  0.3493  0.2124
  926SOL     OW 3701   3.808   0.767   1.633  0.1051  0.4403 -0.2036
  926SOL    HW2 3702   3.727   0.812   1.611 -0.3479 -0.9213 -1.3950
  926SOL    HW3 3703   3.795   0.677   1.604  2.6291  0.5527 -1.9260
  926SOL    MW4 3704   3.796   0.761   1.626  0.3784  0.2755 -0.5880
  927SOL     OW 3705   3.559   0.918   1.566 -0.4564  0.1791 -0.1612
  927SOL    HW2 3706   3.488   0.857   1.589 -0.0190  0.4153  1.9366
  927SOL    HW3 3707   3.572   0.904   1.472 -1.3786 -1.8936 -0.0301
  927SOL    MW4 3708   3.551   0.908   1.557 -0.5204 -0.0632  0.1329
  928SOL     OW 3709   3.605   1.169   1.658 -0.6014  0.1282 -0.3116
  928SOL    HW2 3710   3.683   1.201   1.613 -0.4315  0.0191 -0.0957
  928SOL    HW3 3711   3.589   1.082   1.620 -0.6562  0.1790 -0.4038
  928SOL    MW4 3712   3.613   1.162   1.647 -0.5862  0.1205 -0.2953
  929SOL     OW 3713   3.809   1.247   1.500 -0.4211 -0.1981  0.0743
  929SOL    HW2 3714   3.889   1.215   1.542  1.4946  1.1804 -2.3883
  929SOL    HW3 3715   3.809   1.341   1.516 -1.4276 -0.1557 -0.1325
  929SOL    MW4 3716   3.819   1.255   1.507 -0.3011 -0.0106 -0.2779
  930SOL     OW 3717   3.834   1.513   1.610 -0.2740  0.0226  0.5837
  930SOL    HW2 3718   3.832   1.492   1.704 -0.7782  2.4938  1.1736
  930SOL    HW3 3719   3.755   1.566   1.596  0.3159  0.4946 -1.0315
  930SOL    MW4 3720   3.823   1.517   1.621 -0.2627  0.4110  0.4484
  931SOL     OW 3721   3.614   1.687   1.549 -0.1797  0.2768  0.3668
  931SOL    HW2 3722   3.530   1.647   1.573 -0.1638  0.3844  0.6053
  931SOL    HW3 3723   3.607   1.703   1.455  0.3824 -1.6511 -0.0228
  931SOL    MW4 3724   3.602   1.684   1.540 -0.1034  0.0366  0.3468
  932SOL     OW 3725   3.630   1.935   1.650  0.3194 -0.1292  0.4458
  932SOL    HW2 3726   3.626   1.850   1.608  0.6250 -0.0762  0.3089
  932SOL    HW3 3727   3.553   1.982   1.617 -0.1348 -0.5275  0.9150
  932SOL    MW4 3728   3.619   1.930   1.640  0.2998 -0.1747  0.4896
  933SOL     OW 3729   3.825   2.063   1.503 -0.1918  0.4363 -0.3393
  933SOL    HW2 3730   3.843   2.154   1.526  0.2249  0.2376  0.1304
  933SOL    HW3 3731   3.755   2.037   1.563  0.8730 -0.0725  0.6772
  933SOL    MW4 3732   3.818   2.072   1.514  0.0037  0.3429 -0.1432
  934SOL     OW 3733   3.814   2.326   1.590  0.3357  0.1009  0.1186
  934SOL    HW2 3734   3.808   2.351   1.682  0.6489  1.9299 -0.3557
  934SOL    HW3 3735   3.896   2.363   1.559 -0.2744  0.4126 -1.1744
  934SOL    MW4 3736   3.824   2.334   1.598  0.2965  0.3833 -0.1146
  935SOL     OW 3737   3.575   2.476   1.521 -0.2427 -0.0656  0.3756
  935SOL    HW2 3738   3.593   2.565   1.551 -0.6824  0.9934 -2.3083
  935SOL    HW3 3739   3.656   2.429   1.538  1.2387  1.7618 -1.2362
  935SOL    MW4 3740   3.588   2.482   1.527 -0.1053  0.3152 -0.1911
  936SOL     OW 3741   3.568   2.732   1.630 -0.3533 -0.3342  0.0157
  936SOL    HW2 3742   3.570   2.721   1.725 -2.6646  0.5761  0.1866
  936SOL    HW3 3743   3.481   2.766   1.611 -0.0111 -0.7478 -2.4680
  936SOL    MW4 3744   3.557   2.735   1.640 -0.6131 -0.2687 -0.2894
  937SOL     OW 3745   3.803   2.814   1.503  0.1204  0.4299  0.2300
  937SOL    HW2 3746   3.863   2.742   1.523 -0.5347 -0.0110  0.6510
  937SOL    HW3 3747   3.722   2.790   1.548 -0.6607  0.5689 -1.0759
  937SOL    MW4 3748   3.800   2.801   1.512 -0.0691  0.3901  0.1132
  938SOL     OW 3749   3.824   3.077   1.601 -0.0727  0.0928 -0.0242
  938SOL    HW2 3750   3.901   3.102   1.551 -0.4883 -0.0981 -0.7642
  938SOL    HW3 3751   3.806   2.987   1.574 -0.9866  0.3876 -0.4021
  938SOL    MW4 3752   3.832   3.069   1.591 -0.2481  0.1065 -0.1717
  939SOL     OW 3753   3.596   3.250   1.545 -0.1239 -0.2151  0.4589
  939SOL    HW2 3754   3.673   3.193   1.548 -0.2701 -0.3678  1.3008
  939SOL    HW3 3755   3.583   3.267   1.451 -0.2275 -1.7562  0.1860
  939SOL    MW4 3756   3.604   3.245   1.533 -0.1569 -0.4386  0.5339
  940SOL     OW 3757   3.571   3.507   1.617 -0.0500 -0.2930 -0.0764
  940SOL    HW2 3758   3.644   3.538   1.564 -0.3077 -0.2958 -0.4320
  940SOL    HW3 3759   3.572   3.412   1.607  0.0299 -0.3096  0.0912
  940SOL    MW4 3760   3.581   3.498   1.609 -0.0735 -0.2955 -0.1012
  941SOL     OW 3761   3.772   3.604   1.453  0.1377  0.0957 -0.2561
  941SOL    HW2 3762   3.841   3.553   1.496  0.4600  1.8366  1.3474
  941SOL    HW3 3763   3.787   3.694   1.482 -0.6427  1.0758 -2.7454
  941SOL    MW4 3764   3.783   3.609   1.462  0.0772  0.4547 -0.3730
  942SOL     OW 3765   3.804   3.862   1.545 -0.1141 -0.6619  0.0346
  942SOL    HW2 3766   3.867   3.922   1.504  0.0572 -0.3687  0.7243
  942SOL    HW3 3767   3.719   3.901   1.526  0.0333  0.2372  1.1663
  942SOL    MW4 3768   3.801   3.875   1.537 -0.0720 -0.5046  0.2749
  943SOL     OW 3769   3.584   4.040   1.458 -0.1255 -0.2062  0.3644
  943SOL    HW2 3770   3.594   4.131   1.487  0.2972  0.3439 -1.4081
  943SOL    HW3 3771   3.494   4.018   1.479 -0.4293  0.8618  0.2190
  943SOL    MW4 3772   3.574   4.049   1.464 -0.1098  0.0073  0.1113
  944SOL     OW 3773   3.550   4.292   1.549 -0.0888  0.0782 -0.5868
  944SOL    HW2 3774   3.555   4.284   1.644 -0.1825 -0.7825 -0.6500
  944SOL    HW3 3775   3.460   4.321   1.532 -0.9821 -2.5561 -0.5749
  944SOL    MW4 3776   3.539   4.295   1.559 -0.2190 -0.3829 -0.5936
  945SOL     OW 3777   3.781   4.416   1.477  0.0934 -0.4458  0.0027
  945SOL    HW2 3778   3.700   4.377   1.510 -0.1169 -0.8983 -1.0282
  945SOL    HW3 3779   3.792   4.495   1.529 -1.8316  0.4244 -0.8725
  945SOL    MW4 3780   3.772   4.421   1.488 -0.1883 -0.3907 -0.2488
  946SOL     OW 3781   4.250   0.021   1.633 -0.1570  0.0360 -0.2307
  946SOL    HW2 3782   4.258   0.014   1.728  3.0859 -0.7889 -0.5027
  946SOL    HW3 3783   4.247  -0.070   1.602 -0.1415  0.2871 -0.9794
  946SOL    MW4 3784   4.251   0.008   1.641  0.2729 -0.0397 -0.3654
  947SOL     OW 3785   4.034   0.115   1.509 -0.2282  0.5820  0.2812
  947SOL    HW2 3786   4.040   0.210   1.523  0.4555  0.5321  0.3836
  947SOL    HW3 3787   4.114   0.080   1.550  0.1235  0.0883 -0.8055
  947SOL    MW4 3788   4.045   0.123   1.516 -0.0916  0.5103  0.1513
  948SOL     OW 3789   4.051   0.362   1.635 -0.3947 -0.1721 -0.1356
  948SOL    HW2 3790   4.058   0.366   1.731  1.1839 -0.8053 -0.1927
  948SOL    HW3 3791   3.967   0.403   1.615  0.8410  3.2717  1.2751
  948SOL    MW4 3792   4.041   0.368   1.645 -0.0234  0.1987  0.0430
  949SOL     OW 3793   4.248   0.521   1.525  0.3680  0.2776 -0.5039
  949SOL    HW2 3794   4.167   0.473   1.542  0.6323  0.7278  2.3275
  949SOL    HW3 3795   4.317   0.463   1.559  1.0213  0.9616 -0.6491
  949SOL    MW4 3796   4.247   0.507   1.532  0.4891  0.4273 -0.1495
  950SOL     OW 3797   4.254   0.787   1.596  0.5254 -0.2330  0.0540
  950SOL    HW2 3798   4.253   0.700   1.557 -0.0318 -0.0553 -0.3295
  950SOL    HW3 3799   4.335   0.828   1.563  1.0376 -0.7761  0.6236
  950SOL    MW4 3800   4.265   0.781   1.587  0.5195 -0.2812  0.0786
  951SOL     OW 3801   4.022   0.907   1.526  0.0537  0.0353  0.1742
  951SOL    HW2 3802   4.097   0.857   1.559  1.0705  1.0594 -0.5452
  951SOL    HW3 3803   3.946   0.859   1.558  0.9997 -2.1654 -0.7745
  951SOL    MW4 3804   4.022   0.894   1.535  0.3127 -0.1199 -0.0459
  952SOL     OW 3805   4.026   1.151   1.632  0.1484  0.5359  0.0842
  952SOL    HW2 3806   4.049   1.150   1.725 -0.3425 -0.3323  0.1989
  952SOL    HW3 3807   4.043   1.061   1.603 -0.8654  0.4904 -0.3726
  952SOL    MW4 3808   4.031   1.139   1.641 -0.0501  0.4154  0.0390
  953SOL     OW 3809   4.249   1.292   1.493  0.3664 -0.3374  0.1857
  953SOL    HW2 3810   4.183   1.248   1.547 -0.9729 -0.0673 -1.1683
  953SOL    HW3 3811   4.332   1.251   1.517 -0.2837 -0.6562  1.9682
  953SOL    MW4 3812   4.251   1.281   1.503  0.1039 -0.3438  0.2423
  954SOL     OW 3813   4.293   1.539   1.600  0.3463  0.1484  0.2237
  954SOL    HW2 3814   4.281   1.449   1.569  0.3588 -0.6032  2.3415
  954SOL    HW3 3815   4.381   1.563   1.573  0.1554 -0.2692 -0.8035
  954SOL    MW4 3816   4.303   1.531   1.592  0.3228 -0.0059  0.3676
  955SOL     OW 3817   4.063   1.653   1.508 -0.0628  0.2548 -0.2985
  955SOL    HW2 3818   4.148   1.627   1.543 -0.2988 -0.9320 -0.5951
  955SOL    HW3 3819   4.000   1.595   1.551 -0.6127  0.4501 -0.8263
  955SOL    MW4 3820   4.066   1.642   1.518 -0.1665  0.1240 -0.4072
  956SOL     OW 3821   4.040   1.911   1.616 -0.0164 -0.4836  0.5907
  956SOL    HW2 3822   4.028   1.819   1.591 -2.4654 -0.7087  2.4178
  956SOL    HW3 3823   3.969   1.958   1.571  0.7693  0.4168  0.2660
  956SOL    MW4 3824   4.029   1.905   1.607 -0.2359 -0.3945  0.7890
  957SOL     OW 3825   4.272   2.041   1.532 -0.0519 -0.1817  0.1284
  957SOL    HW2 3826   4.191   1.999   1.564  0.0156  1.2141  2.2151
  957SOL    HW3 3827   4.255   2.057   1.439 -1.4525 -1.5815  0.1085
  957SOL    MW4 3828   4.259   2.038   1.524 -0.2278 -0.1822  0.4011
  958SOL     OW 3829   4.275   2.307   1.634  0.9660 -0.0071 -0.2665
  958SOL    HW2 3830   4.277   2.307   1.729 -2.3391 -1.1165 -0.1335
  958SOL    HW3 3831   4.273   2.214   1.610  0.1214  0.2698 -1.3360
  958SOL    MW4 3832   4.275   2.295   1.643  0.4185 -0.1170 -0.3900
  959SOL     OW 3833   4.046   2.410   1.480  0.0681  0.0233  0.3262
  959SOL    HW2 3834   4.041   2.500   1.510  1.1078  0.1145  0.2679
  959SOL    HW3 3835   4.104   2.367   1.544  1.3405 -0.0604 -0.8567
  959SOL    MW4 3836   4.053   2.416   1.493  0.3731  0.0243  0.1625
  960SOL     OW 3837   4.007   2.666   1.612  0.1500  0.3602  0.0900
  960SOL    HW2 3838   4.014   2.665   1.707  1.0137 -1.5854  0.0309
  960SOL    HW3 3839   4.062   2.739   1.584  0.2731  0.6402  1.0508
  960SOL    MW4 3840   4.015   2.675   1.621  0.2802  0.1405  0.2090
  961SOL     OW 3841   4.189   2.864   1.540  0.3550 -0.3086  0.3712
  961SOL    HW2 3842   4.209   2.951   1.576 -0.9962  0.0589  0.2767
  961SOL    HW3 3843   4.221   2.868   1.449 -2.3556  1.1532 -0.5716
  961SOL    MW4 3844   4.196   2.876   1.533 -0.1809 -0.0673  0.2343
  962SOL     OW 3845   4.248   3.137   1.631  0.1780 -0.0837  0.6629
  962SOL    HW2 3846   4.254   3.145   1.727  0.4837  1.0292  0.5484
  962SOL    HW3 3847   4.329   3.174   1.599 -0.6437  1.0669 -0.1159
  962SOL    MW4 3848   4.259   3.143   1.640  0.1100  0.2150  0.5451
  963SOL     OW 3849   4.041   3.225   1.470 -0.3168  0.0411  0.3347
  963SOL    HW2 3850   4.023   3.308   1.515  0.6260  0.2785  0.2878
  963SOL    HW3 3851   4.123   3.194   1.510  0.9977  0.6802 -1.8060
  963SOL    MW4 3852   4.049   3.232   1.482 -0.0189  0.1568  0.0461
  964SOL     OW 3853   3.985   3.467   1.588  0.0359  0.0923  0.3476
  964SOL    HW2 3854   3.971   3.484   1.681  0.2317  1.8037  0.0903
  964SOL    HW3 3855   4.065   3.516   1.567 -0.2277  0.0377 -0.8027
  964SOL    MW4 3856   3.994   3.476   1.598  0.0270  0.3109  0.1619
  965SOL     OW 3857   4.197   3.639   1.535  0.3464 -0.2240 -0.2157
  965SOL    HW2 3858   4.201   3.726   1.573 -1.2842  0.4518 -1.5149
  965SOL    HW3 3859   4.206   3.653   1.441  3.7923 -1.8065 -0.2289
  965SOL    MW4 3860   4.199   3.652   1.528  0.5859 -0.3436 -0.3888
  966SOL     OW 3861   4.237   3.905   1.629  0.3273 -0.6766 -0.3330
  966SOL    HW2 3862   4.163   3.939   1.578  1.2187  1.8350 -0.0228
  966SOL    HW3 3863   4.314   3.936   1.582  1.1794 -1.4165  0.5563
  966SOL    MW4 3864   4.237   3.913   1.616  0.5573 -0.4428 -0.1748
  967SOL     OW 3865   4.018   4.006   1.471  0.3122  1.0321 -0.2983
  967SOL    HW2 3866   4.005   4.097   1.498  2.0051  1.4543 -0.8160
  967SOL    HW3 3867   4.038   4.012   1.378  1.8161  0.2787 -0.0430
  967SOL    MW4 3868   4.019   4.019   1.463  0.7340  0.9884 -0.3330
  968SOL     OW 3869   4.010   4.269   1.570 -0.2673  0.1415 -0.4554
  968SOL    HW2 3870   4.018   4.277   1.665  1.0348  0.7774 -0.6142
  968SOL    HW3 3871   3.932   4.319   1.547  0.9141  2.2127 -0.0204
  968SOL    MW4 3872   4.000   4.276   1.579  0.0604  0.4986 -0.4189
  969SOL     OW 3873   4.238   4.427   1.498  0.0060  0.2115  0.3552
  969SOL    HW2 3874   4.158   4.379   1.520 -0.2071 -0.0893 -1.0632
  969SOL    HW3 3875   4.242   4.426   1.403  1.7213  0.1943  0.4061
  969SOL    MW4 3876   4.228   4.420   1.489  0.2042  0.1695  0.1748
  970SOL     OW 3877   0.209   4.627   1.905 -0.1206 -0.0448  0.1691
  970SOL    HW2 3878   0.272   4.696   1.924 -1.8768  1.2406  1.4657
  970SOL    HW3 3879   0.202   4.625   1.809  0.6120  0.9617  0.0963
  970SOL    MW4 3880   0.216   4.636   1.895 -0.2557  0.2576  0.3306
  971SOL     OW 3881   4.480   0.077   2.043  0.4021 -0.5366  0.3898
  971SOL    HW2 3882   4.476   0.164   2.002  0.3086 -0.5937  0.2790
  971SOL    HW3 3883   4.555   0.035   2.002  0.4477 -0.5075  0.4439
  971SOL    MW4 3884   4.489   0.083   2.032  0.3957 -0.5403  0.3823
  972SOL     OW 3885   4.465   0.349   1.903  0.0797  0.1457  0.7915
  972SOL    HW2 3886   4.392   0.402   1.936  0.5017  1.5567 -0.5312
  972SOL    HW3 3887   4.543   0.399   1.925  0.4841  0.0723 -0.4740
  972SOL    MW4 3888   4.465   0.363   1.910  0.1888  0.3222  0.4500
  973SOL     OW 3889   0.207   0.484   2.000 -0.0393  0.1380 -0.1241
  973SOL    HW2 3890   0.291   0.457   1.963 -0.7631  0.2687 -1.9292
  973SOL    HW3 3891   0.203   0.578   1.987 -0.3677  0.1701  0.1734
  973SOL    MW4 3892   0.217   0.493   1.993 -0.1781  0.1594 -0.3230
  974SOL     OW 3893   0.190   0.747   1.954  0.1694 -0.5117  0.1732
  974SOL    HW2 3894   0.273   0.785   1.984  0.3328 -0.3178 -0.5124
  974SOL    HW3 3895   0.195   0.751   1.858 -0.7584 -0.2490  0.1356
  974SOL    MW4 3896   0.202   0.752   1.945  0.0685 -0.4515  0.0778
  975SOL     OW 3897   4.458   0.945   1.975  0.1827 -0.2337  0.0806
  975SOL    HW2 3898   4.391   0.900   1.925  0.4855  0.4763 -0.9836
  975SOL    HW3 3899   4.540   0.904   1.949  0.4367  0.7633 -0.7200
  975SOL    MW4 3900   4.460   0.934   1.965  0.2561 -0.0085 -0.1654
  976SOL     OW 3901   4.484   1.181   1.849  0.5010 -0.1072 -0.2562
  976SOL    HW2 3902   4.426   1.247   1.888 -0.7084 -0.7763 -0.9201
  976SOL    HW3 3903   4.461   1.099   1.893  2.3752 -0.0192  0.9497
  976SOL    MW4 3904   4.473   1.179   1.860  0.5887 -0.1839 -0.1847
  977SOL     OW 3905   0.208   1.284   1.988 -0.3147 -0.3478 -0.2386
  977SOL    HW2 3906   0.227   1.369   1.948  0.8996 -0.6447 -0.3285
  977SOL    HW3 3907   0.136   1.248   1.936  0.4562 -0.2061 -1.4131
  977SOL    MW4 3908   0.201   1.290   1.976 -0.0528 -0.3683 -0.4054
  978SOL     OW 3909   0.294   1.540   1.892  0.9420  0.0638 -0.0444
  978SOL    HW2 3910   0.367   1.595   1.923  0.0480  1.6081 -0.6073
  978SOL    HW3 3911   0.216   1.581   1.929  0.2107 -0.4786 -0.9735
  978SOL    MW4 3912   0.293   1.553   1.901  0.7275  0.1960 -0.2412
  979SOL     OW 3913   0.053   1.685   1.965  0.0466  0.3422  0.3339
  979SOL    HW2 3914   0.034   1.685   2.059 -0.3988 -1.0454  0.2562
  979SOL    HW3 3915  -0.023   1.642   1.926  0.9682 -0.5435 -0.5061
  979SOL    MW4 3916   0.040   1.680   1.972  0.1094  0.0422  0.2128
  980SOL     OW 3917   0.016   1.950   1.892 -0.1198 -0.7217  0.1509
  980SOL    HW2 3918  -0.074   1.966   1.920 -0.8725 -2.1010 -1.3241
  980SOL    HW3 3919   0.032   1.858   1.914  0.3358 -0.9504 -1.0802
  980SOL    MW4 3920   0.006   1.940   1.898 -0.1590 -0.9338 -0.2061
  981SOL     OW 3921   0.257   2.065   1.961 -0.6539  0.0111  0.2462
  981SOL    HW2 3922   0.256   2.157   1.936 -0.4171 -0.6407 -2.3769
  981SOL    HW3 3923   0.173   2.030   1.928 -0.3247 -0.9062  0.3583
  981SOL    MW4 3924   0.245   2.072   1.953 -0.5792 -0.1959 -0.0851
  982SOL     OW 3925   0.235   2.342   1.863 -0.1488 -0.0317  0.0378
  982SOL    HW2 3926   0.311   2.368   1.914 -0.0753 -0.3622  0.1015
  982SOL    HW3 3927   0.160   2.366   1.917 -0.1275  1.3458 -0.5281
  982SOL    MW4 3928   0.235   2.348   1.877 -0.1363  0.1064 -0.0285
  983SOL     OW 3929   4.482   2.435   2.006  0.0804 -0.0276  0.1005
  983SOL    HW2 3930   4.496   2.435   2.101 -2.7660 -0.7965  0.5835
  983SOL    HW3 3931   4.465   2.527   1.985  0.6603  0.1355  0.3327
  983SOL    MW4 3932   4.481   2.447   2.016 -0.2186 -0.1075  0.1948
  984SOL     OW 3933   0.010   2.685   1.879 -0.0446  0.3337  0.0642
  984SOL    HW2 3934  -0.061   2.747   1.896 -0.7638 -0.0583 -1.4031
  984SOL    HW3 3935  -0.000   2.662   1.787  0.7363 -1.3054  0.3673
  984SOL    MW4 3936  -0.001   2.690   1.869 -0.0365  0.0657 -0.0894
  985SOL     OW 3937   0.242   2.805   1.981 -0.0037  0.1022 -0.0089
  985SOL    HW2 3938   0.234   2.896   1.953  0.5593  0.2279  0.2301
  985SOL    HW3 3939   0.168   2.760   1.940  0.3753  0.4349 -1.0628
  985SOL    MW4 3940   0.231   2.811   1.972  0.1206  0.1627 -0.1164
  986SOL     OW 3941   0.242   3.076   1.903 -0.1505 -0.1242 -0.5043
  986SOL    HW2 3942   0.299   3.139   1.947  0.2150 -0.0450 -1.0944
  986SOL    HW3 3943   0.259   3.088   1.810  0.9364 -2.0369 -0.5809
  986SOL    MW4 3944   0.251   3.086   1.896  0.0411 -0.3661 -0.5923
  987SOL     OW 3945   0.024   3.244   1.986 -0.5997  0.1237  0.2104
  987SOL    HW2 3946  -0.063   3.220   1.956 -0.6559 -0.2374  0.6474
  987SOL    HW3 3947   0.082   3.182   1.941 -0.5662  0.3593 -0.0742
  987SOL    MW4 3948   0.020   3.232   1.976 -0.6027  0.1071  0.2305
  988SOL     OW 3949   4.489   3.513   1.890 -0.0459  0.4985  0.7245
  988SOL    HW2 3950   4.574   3.556   1.895  0.4359 -0.3157 -0.1906
  988SOL    HW3 3951   4.506   3.424   1.924 -0.1251 -0.2230 -1.0798
  988SOL    MW4 3952   4.503   3.507   1.895  0.0072  0.2959  0.3657
  989SOL     OW 3953   0.259   3.661   1.962  0.0491 -0.5920  0.2137
  989SOL    HW2 3954   0.260   3.656   2.057  0.5331 -1.2150  0.1839
  989SOL    HW3 3955   0.336   3.609   1.935 -0.1828 -0.5608 -0.5134
  989SOL    MW4 3956   0.269   3.653   1.971  0.0823 -0.6700  0.1138
  990SOL     OW 3957   0.225   3.917   1.870 -0.1793  0.0921 -0.1288
  990SOL    HW2 3958   0.297   3.953   1.923 -0.2032  0.2101 -0.1767
  990SOL    HW3 3959   0.228   3.822   1.887  1.4805 -0.2170 -1.9360
  990SOL    MW4 3960   0.235   3.909   1.879  0.0366  0.0669 -0.3736
  991SOL     OW 3961   4.475   4.019   1.987  0.2467 -0.6754  0.1234
  991SOL    HW2 3962   4.477   4.109   1.954  2.0963 -0.0274  1.9268
  991SOL    HW3 3963   4.552   3.978   1.948 -1.0319 -1.7401 -1.3343
  991SOL    MW4 3964   4.486   4.025   1.978  0.3221 -0.7304  0.1690
  992SOL     OW 3965   4.489   4.269   1.882 -0.1393  0.7104 -0.1886
  992SOL    HW2 3966   4.414   4.322   1.908  0.3309  0.6636  1.3120
  992SOL    HW3 3967   4.562   4.306   1.932  0.2772 -1.0631  0.5442
  992SOL    MW4 3968   4.489   4.281   1.892 -0.0223  0.4702  0.1061
  993SOL     OW 3969   0.280   4.365   2.008  0.8074 -0.5478 -0.1788
  993SOL    HW2 3970   0.261   4.362   2.101 -0.1560 -1.7599 -0.4054
  993SOL    HW3 3971   0.270   4.457   1.984  1.3521 -0.1870  0.9638
  993SOL    MW4 3972   0.276   4.377   2.017  0.7521 -0.6601 -0.0580
  994SOL     OW 3973   0.676   0.013   1.862 -0.4664 -0.1346  0.2667
  994SOL    HW2 3974   0.683  -0.078   1.889  2.3465  0.2799  1.1571
  994SOL    HW3 3975   0.673   0.010   1.767  1.0115 -1.1178  0.2349
  994SOL    MW4 3976   0.677   0.001   1.853  0.0997 -0.2096  0.3800
  995SOL     OW 3977   0.467   0.129   2.011 -0.4676  0.4053  0.2526
  995SOL    HW2 3978   0.456   0.204   1.952  0.0619 -0.3559 -0.8450
  995SOL    HW3 3979   0.547   0.086   1.979 -0.5069 -0.3564  1.1664
  995SOL    MW4 3980   0.476   0.134   1.999 -0.4029  0.2044  0.2283
  996SOL     OW 3981   0.420   0.358   1.854 -0.4458  0.2632  0.1865
  996SOL    HW2 3982   0.500   0.404   1.879  0.1573  0.2128 -1.5662
  996SOL    HW3 3983   0.409   0.377   1.761 -2.4377  0.1987  0.3797
  996SOL    MW4 3984   0.429   0.366   1.845 -0.6290  0.2481 -0.0192
  997SOL     OW 3985   0.636   0.493   1.940 -0.1253  0.1694 -0.2565
  997SOL    HW2 3986   0.636   0.480   2.035  0.4727 -0.0573 -0.2883
  997SOL    HW3 3987   0.721   0.461   1.911 -0.2775  0.3067 -0.8626
  997SOL    MW4 3988   0.647   0.487   1.948 -0.0665  0.1576 -0.3406
  998SOL     OW 3989   0.676   0.770   1.873  0.3362 -0.4297 -0.1816
  998SOL    HW2 3990   0.752   0.795   1.927  0.2823  0.7471 -0.6307
  998SOL    HW3 3991   0.666   0.676   1.888  1.3225 -0.4238  0.5993
  998SOL    MW4 3992   0.685   0.761   1.882  0.4592 -0.2737 -0.1378
  999SOL     OW 3993   0.462   0.889   2.001  0.1405  0.4241 -0.1792
  999SOL    HW2 3994   0.446   0.978   1.970 -0.3165  0.0824 -0.9490
  999SOL    HW3 3995   0.535   0.858   1.948  0.3436  0.3620  0.1346
  999SOL    MW4 3996   0.470   0.896   1.990  0.1070  0.3708 -0.2394
 1000SOL     OW 3997   0.438   1.145   1.897 -0.0793  0.1414 -0.1485
 1000SOL    HW2 3998   0.357   1.189   1.921  0.6019  0.6344  1.3317
 1000SOL    HW3 3999   0.436   1.141   1.802 -2.2615 -0.6951 -0.0862
 1000SOL    MW4 4000   0.427   1.150   1.888 -0.2773  0.0961  0.0550
 1001SOL     OW 4001   0.696   1.242   2.002  0.3229 -0.2050  0.1238
 1001SOL    HW2 4002   0.687   1.252   2.097  0.2085  0.3484  0.0540
 1001SOL    HW3 4003   0.610   1.212   1.973  0.3015 -0.1886  0.1700
 1001SOL    MW4 4004   0.683   1.239   2.010  0.3050 -0.1298  0.1207
 1002SOL     OW 4005   0.718   1.523   1.889  0.1772  0.3082  0.0195
 1002SOL    HW2 4006   0.702   1.429   1.903 -0.6288  0.4375 -0.0379
 1002SOL    HW3 4007   0.688   1.540   1.800  1.1381  0.4444 -0.2899
 1002SOL    MW4 4008   0.712   1.513   1.879  0.1976  0.3432 -0.0289
 1003SOL     OW 4009   0.492   1.688   1.987  0.0528 -0.1920  0.2472
 1003SOL    HW2 4010   0.486   1.675   2.082  1.6615  1.8337  0.6640
 1003SOL    HW3 4011   0.572   1.643   1.961  1.0606  1.5073  0.3204
 1003SOL    MW4 4012   0.502   1.681   1.996  0.3980  0.2994  0.3119
 1004SOL     OW 4013   0.471   1.938   1.862  0.3102 -0.0768  0.2270
 1004SOL    HW2 4014   0.476   1.850   1.899 -0.0458  0.1814  0.9021
 1004SOL    HW3 4015   0.396   1.978   1.905 -0.1918  0.1950 -0.8799
 1004SOL    MW4 4016   0.462   1.932   1.873  0.1970 -0.0069  0.1700
 1005SOL     OW 4017   0.696   2.052   1.995  0.1334  0.4731 -0.1032
 1005SOL    HW2 4018   0.686   2.036   2.089  2.9124 -1.2438 -0.0339
 1005SOL    HW3 4019   0.621   2.009   1.955  0.1323 -0.7635  1.1950
 1005SOL    MW4 4020   0.685   2.044   2.002  0.4999  0.0834  0.0773
 1006SOL     OW 4021   0.692   2.304   1.882  0.2060 -0.4883  0.1046
 1006SOL    HW2 4022   0.708   2.213   1.908 -1.0845 -0.7297  0.1012
 1006SOL    HW3 4023   0.676   2.299   1.787 -0.3301 -0.3167  0.1884
 1006SOL    MW4 4024   0.692   2.291   1.873 -0.0350 -0.4975  0.1152
 1007SOL     OW 4025   0.467   2.469   1.976 -0.3291 -0.3215 -0.0285
 1007SOL    HW2 4026   0.473   2.475   2.071 -1.9270 -1.5709  0.1761
 1007SOL    HW3 4027   0.545   2.420   1.950  0.2364  0.2351  0.6194
 1007SOL    MW4 4028   0.478   2.463   1.985 -0.4653 -0.4129  0.0840
 1008SOL     OW 4029   0.464   2.715   1.839  0.2212  0.2612  0.4232
 1008SOL    HW2 4030   0.483   2.628   1.873 -1.1913  0.0545  0.6886
 1008SOL    HW3 4031   0.386   2.743   1.887 -0.3273  0.9782 -0.8697
 1008SOL    MW4 4032   0.457   2.707   1.850 -0.0375  0.3286  0.2876
 1009SOL     OW 4033   0.670   2.846   1.976  0.5106 -0.1671 -0.6746
 1009SOL    HW2 4034   0.676   2.811   2.065  0.5216  0.8101 -0.2859
 1009SOL    HW3 4035   0.592   2.804   1.939  1.2985 -1.6335 -0.6849
 1009SOL    MW4 4036   0.660   2.836   1.983  0.6160 -0.2316 -0.6246
 1010SOL     OW 4037   0.683   3.111   1.883  0.3031 -0.5290  0.1763
 1010SOL    HW2 4038   0.679   3.019   1.907  0.0752 -0.7788 -0.8031
 1010SOL    HW3 4039   0.674   3.112   1.788 -0.0376  0.5236  0.2083
 1010SOL    MW4 4040   0.681   3.099   1.873  0.2281 -0.4231  0.0513
 1011SOL     OW 4041   0.443   3.243   1.988 -0.3003  0.0885 -0.0275
 1011SOL    HW2 4042   0.469   3.333   1.968  0.5676 -0.0354  0.5242
 1011SOL    HW3 4043   0.507   3.189   1.941  1.2529 -0.2142  2.3200
 1011SOL    MW4 4044   0.455   3.247   1.979  0.0191  0.0322  0.3550
 1012SOL     OW 4045   0.478   3.510   1.899 -0.3318  0.4793  0.1358
 1012SOL    HW2 4046   0.563   3.549   1.920 -0.5627  0.9385  0.2247
 1012SOL    HW3 4047   0.474   3.512   1.803 -0.5700  1.1775  0.1531
 1012SOL    MW4 4048   0.489   3.516   1.889 -0.3937  0.6320  0.1498
 1013SOL     OW 4049   0.719   3.616   1.988  0.0522 -0.0836 -0.0592
 1013SOL    HW2 4050   0.803   3.583   1.957 -0.4542 -0.5095 -0.9897
 1013SOL    HW3 4051   0.723   3.710   1.970  0.2288 -0.1424 -0.3295
 1013SOL    MW4 4052   0.731   3.624   1.982  0.0087 -0.1476 -0.2177
 1014SOL     OW 4053   0.688   3.885   1.914 -0.2628 -0.0711 -0.3769
 1014SOL    HW2 4054   0.779   3.909   1.935  0.2359 -1.2069 -1.2056
 1014SOL    HW3 4055   0.685   3.881   1.819 -0.1967 -3.6187 -0.3111
 1014SOL    MW4 4056   0.700   3.887   1.905 -0.1883 -0.6890 -0.4776
 1015SOL     OW 4057   0.449   3.999   2.006  0.3235 -0.4269  0.6422
 1015SOL    HW2 4058   0.467   4.092   1.989  0.2389 -0.3569  0.9412
 1015SOL    HW3 4059   0.530   3.955   1.980  0.5759 -0.2104  1.0503
 1015SOL    MW4 4060   0.462   4.006   2.000  0.3457 -0.3891  0.7355
 1016SOL     OW 4061   0.512   4.246   1.899 -0.3354  0.3838 -0.0438
 1016SOL    HW2 4062   0.436   4.296   1.926 -1.3657 -1.0543 -0.2152
 1016SOL    HW3 4063   0.498   4.229   1.806  0.7248  1.0181 -0.3317
 1016SOL    MW4 4064   0.500   4.250   1.890 -0.3314  0.2777 -0.1044
 1017SOL     OW 4065   0.702   4.423   1.955  0.1787 -0.6967  0.2620
 1017SOL    HW2 4066   0.775   4.364   1.937 -0.7172 -1.8858  0.4401
 1017SOL    HW3 4067   0.624   4.371   1.935 -0.6072  1.5556 -2.9876
 1017SOL    MW4 4068   0.702   4.408   1.950 -0.0432 -0.5564 -0.1432
 1018SOL     OW 4069   1.093   4.640   1.838 -0.3451  0.3667 -0.1400
 1018SOL    HW2 4070   1.169   4.697   1.850  0.0682 -0.0672 -0.6741
 1018SOL    HW3 4071   1.109   4.566   1.896 -0.8534  0.7580  0.5083
 1018SOL    MW4 4072   1.105   4.638   1.847 -0.3576  0.3610 -0.1249
 1019SOL     OW 4073   0.896   0.130   1.964 -0.3210  0.7506 -0.0298
 1019SOL    HW2 4074   0.971   0.082   1.929 -1.5347 -1.2206 -0.0222
 1019SOL    HW3 4075   0.819   0.081   1.934 -1.5188  1.2010  2.1510
 1019SOL    MW4 4076   0.895   0.117   1.955 -0.6392  0.5499  0.2589
 1020SOL     OW 4077   0.871   0.385   1.859 -0.0300 -0.0654 -0.2373
 1020SOL    HW2 4078   0.948   0.435   1.884  0.5519  0.0379 -2.1831
 1020SOL    HW3 4079   0.883   0.300   1.900  0.0213  0.6811  1.3175
 1020SOL    MW4 4080   0.883   0.380   1.868  0.0535  0.0467 -0.2889
 1021SOL     OW 4081   1.119   0.487   1.957 -0.2712 -0.6682 -0.1641
 1021SOL    HW2 4082   1.205   0.471   1.918 -0.2480 -0.7906 -0.0664
 1021SOL    HW3 4083   1.105   0.581   1.949 -0.7811 -0.8500 -1.5237
 1021SOL    MW4 4084   1.129   0.497   1.951 -0.3354 -0.7083 -0.3306
 1022SOL     OW 4085   1.118   0.742   1.878  0.3675  0.1993 -0.4708
 1022SOL    HW2 4086   1.200   0.787   1.900  0.0029  0.6053  0.0598
 1022SOL    HW3 4087   1.050   0.797   1.917 -0.0173 -1.4862  1.2715
 1022SOL    MW4 4088   1.120   0.755   1.886  0.2686  0.0304 -0.1709
 1023SOL     OW 4089   0.898   0.871   1.986 -0.0690  0.2355  0.5416
 1023SOL    HW2 4090   0.889   0.875   2.081 -0.5703  2.1809  0.4238
 1023SOL    HW3 4091   0.885   0.961   1.957  0.0139 -0.3615 -1.3783
 1023SOL    MW4 4092   0.895   0.883   1.995 -0.1242  0.4134  0.2728
 1024SOL     OW 4093   0.926   1.143   1.896  0.3408  0.3829  0.1037
 1024SOL    HW2 4094   0.852   1.187   1.938  1.3632  1.8145  0.4348
 1024SOL    HW3 4095   0.905   1.144   1.803 -0.8617 -0.7675  0.3518
 1024SOL    MW4 4096   0.914   1.149   1.890  0.3171  0.4200  0.1801
 1025SOL     OW 4097   1.156   1.271   1.972  0.3770 -0.0390  0.1042
 1025SOL    HW2 4098   1.154   1.358   1.934  1.2075  0.4981  1.2436
 1025SOL    HW3 4099   1.074   1.231   1.946  0.3297  0.8054 -1.0765
 1025SOL    MW4 4100   1.145   1.277   1.963  0.4803  0.1433  0.0988
 1026SOL     OW 4101   1.165   1.531   1.866 -0.1364  0.5847  0.2441
 1026SOL    HW2 4102   1.093   1.568   1.918 -1.3367 -0.6468 -0.5105
 1026SOL    HW3 4103   1.129   1.526   1.777  0.7307 -0.4920 -0.0441
 1026SOL    MW4 4104   1.151   1.535   1.861 -0.1803  0.2801  0.1065
 1027SOL     OW 4105   0.933   1.658   1.994 -0.3502  0.3660  0.0692
 1027SOL    HW2 4106   0.930   1.744   1.951  0.2040 -0.2131 -1.1690
 1027SOL    HW3 4107   0.866   1.606   1.949  0.0290 -0.1587  0.0969
 1027SOL    MW4 4108   0.924   1.662   1.982 -0.2271  0.2204 -0.0905
 1028SOL     OW 4109   0.889   1.906   1.879 -0.3088 -0.6806  0.0465
 1028SOL    HW2 4110   0.819   1.965   1.906 -0.6792 -0.5454 -1.1921
 1028SOL    HW3 4111   0.889   1.911   1.784  1.1102 -1.0064  0.0261
 1028SOL    MW4 4112   0.880   1.914   1.870 -0.1704 -0.7057 -0.1196
 1029SOL     OW 4113   1.111   2.059   1.968  0.0217  0.2227  0.0220
 1029SOL    HW2 4114   1.094   2.143   1.926  0.1630 -0.2585 -1.0158
 1029SOL    HW3 4115   1.044   2.000   1.934 -0.2703 -0.0171  0.9833
 1029SOL    MW4 4116   1.100   2.062   1.958  0.0018  0.1275  0.0119
 1030SOL     OW 4117   1.102   2.335   1.866 -0.1559  0.2541  0.3706
 1030SOL    HW2 4118   1.190   2.362   1.893 -0.0391 -0.1692  0.4085
 1030SOL    HW3 4119   1.108   2.322   1.771 -0.2536  0.5159  0.3272
 1030SOL    MW4 4120   1.114   2.337   1.857 -0.1533  0.2328  0.3699
 1031SOL     OW 4121   0.895   2.497   1.958  0.7087 -0.2860  1.0908
 1031SOL    HW2 4122   0.968   2.441   1.929  0.1813  0.0539 -0.9598
 1031SOL    HW3 4123   0.817   2.450   1.930  0.2353  0.9727  0.3181
 1031SOL    MW4 4124   0.895   2.483   1.951  0.5766 -0.0751  0.7183
 1032SOL     OW 4125   0.893   2.746   1.856  0.1893 -0.0449 -0.4945
 1032SOL    HW2 4126   0.895   2.655   1.886  0.8964  0.0857 -0.1454
 1032SOL    HW3 4127   0.814   2.782   1.896  0.1526 -0.3782 -0.2640
 1032SOL    MW4 4128   0.883   2.738   1.865  0.2777 -0.0716 -0.4180
 1033SOL     OW 4129   1.140   2.843   1.963  0.1756  0.3695 -0.2291
 1033SOL    HW2 4130   1.129   2.853   2.057  0.8818  0.0538 -0.1109
 1033SOL    HW3 4131   1.054   2.817   1.931  0.0346  0.0842  0.3781
 1033SOL    MW4 4132   1.127   2.841   1.971  0.2501  0.2902 -0.1334
 1034SOL     OW 4133   1.162   3.113   1.891 -0.2340 -0.0663  0.4458
 1034SOL    HW2 4134   1.075   3.142   1.918  0.2018 -0.0585  1.8961
 1034SOL    HW3 4135   1.164   3.020   1.916  0.6939  0.3013  1.7660
 1034SOL    MW4 4136   1.151   3.104   1.898 -0.0541 -0.0167  0.8113
 1035SOL     OW 4137   0.910   3.208   1.984 -0.0379 -0.0248  0.3912
 1035SOL    HW2 4138   0.911   3.199   2.079 -0.3141 -3.3331  0.1613
 1035SOL    HW3 4139   0.831   3.160   1.957  0.3970  0.3090 -1.5455
 1035SOL    MW4 4140   0.900   3.200   1.993 -0.0170 -0.4173  0.1053
 1036SOL     OW 4141   0.955   3.499   1.903 -0.4656 -0.4984  0.0093
 1036SOL    HW2 4142   0.931   3.412   1.937  0.4761 -0.5070  0.6573
 1036SOL    HW3 4143   0.942   3.491   1.809 -0.2378 -1.3923  0.0449
 1036SOL    MW4 4144   0.950   3.486   1.895 -0.3113 -0.6175  0.0995
 1037SOL     OW 4145   1.208   3.557   1.978 -0.0138 -0.2069 -0.7275
 1037SOL    HW2 4146   1.203   3.554   2.073  1.9628 -0.8191 -0.6164
 1037SOL    HW3 4147   1.121   3.529   1.948 -0.6520 -0.0001  0.8776
 1037SOL    MW4 4148   1.196   3.553   1.986  0.1628 -0.2604 -0.5011
 1038SOL     OW 4149   1.163   3.837   1.951  0.1610 -0.1968 -0.0603
 1038SOL    HW2 4150   1.169   3.742   1.961  0.2962 -0.0464  1.4074
 1038SOL    HW3 4151   1.156   3.851   1.857 -0.5004 -1.7009 -0.2489
 1038SOL    MW4 4152   1.163   3.826   1.940  0.0915 -0.3754  0.1084
 1039SOL     OW 4153   0.940   3.996   1.988  0.3188  0.1826  0.0646
 1039SOL    HW2 4154   0.935   4.009   2.083  0.1086  0.2172  0.0498
 1039SOL    HW3 4155   1.021   3.947   1.975 -1.2196 -2.6001  0.5570
 1039SOL    MW4 4156   0.950   3.991   1.999  0.0881 -0.1800  0.1276
 1040SOL     OW 4157   0.918   4.249   1.847 -0.2423  0.5343  0.0032
 1040SOL    HW2 4158   0.981   4.304   1.892 -1.4884  0.7476  1.5587
 1040SOL    HW3 4159   0.925   4.164   1.891  0.3573 -0.0042 -1.1343
 1040SOL    MW4 4160   0.927   4.245   1.859 -0.3276  0.4914  0.0584
 1041SOL     OW 4161   1.118   4.392   1.959 -0.1032 -0.2860 -0.3158
 1041SOL    HW2 4162   1.120   4.398   2.055  0.5975  0.4709 -0.3796
 1041SOL    HW3 4163   1.203   4.355   1.936  0.0519  0.3183 -0.7068
 1041SOL    MW4 4164   1.129   4.388   1.969  0.0097 -0.1064 -0.3758
 1042SOL     OW 4165   1.579   0.008   1.825  0.0022 -0.2269 -0.0154
 1042SOL    HW2 4166   1.657   0.039   1.870 -0.2848  0.8269 -0.2175
 1042SOL    HW3 4167   1.564  -0.080   1.860 -0.2884  0.6051  2.0423
 1042SOL    MW4 4168   1.587   0.001   1.836 -0.0740  0.0219  0.2295
 1043SOL     OW 4169   1.340   0.120   1.920 -0.1129 -0.0402 -0.1794
 1043SOL    HW2 4170   1.344   0.112   2.015 -0.1091  0.1312 -0.1665
 1043SOL    HW3 4171   1.418   0.072   1.889 -0.2861 -0.3708 -0.1119
 1043SOL    MW4 4172   1.351   0.112   1.928 -0.1352 -0.0612 -0.1688
 1044SOL     OW 4173   1.364   0.385   1.857 -0.2320  0.0895 -0.1491
 1044SOL    HW2 4174   1.358   0.294   1.886  1.7875  0.0079  0.0846
 1044SOL    HW3 4175   1.348   0.381   1.763 -0.4048 -0.4660 -0.1014
 1044SOL    MW4 4176   1.361   0.372   1.848  0.0117  0.0055 -0.1120
 1045SOL     OW 4177   1.599   0.524   1.965  0.1569 -0.2062  0.3408
 1045SOL    HW2 4178   1.676   0.470   1.944 -0.0305 -0.9583  1.5984
 1045SOL    HW3 4179   1.529   0.487   1.912  0.5258  0.1430 -0.4029
 1045SOL    MW4 4180   1.600   0.512   1.955  0.1809 -0.2594  0.4086
 1046SOL     OW 4181   1.614   0.771   1.827  0.1631  0.4373 -0.0180
 1046SOL    HW2 4182   1.666   0.834   1.878 -1.2707  1.6943 -0.0879
 1046SOL    HW3 4183   1.629   0.688   1.870  0.1256  1.2480  1.5933
 1046SOL    MW4 4184   1.623   0.769   1.839 -0.0310  0.7101  0.1853
 1047SOL     OW 4185   1.369   0.871   1.913  0.6347  0.2117  0.4155
 1047SOL    HW2 4186   1.380   0.874   2.008  3.1587  0.2989  0.1417
 1047SOL    HW3 4187   1.445   0.822   1.881 -0.7362 -0.7638 -1.4884
 1047SOL    MW4 4188   1.380   0.865   1.921  0.7868  0.0945  0.1281
 1048SOL     OW 4189   1.365   1.148   1.859 -0.1767  0.1981 -0.0895
 1048SOL    HW2 4190   1.363   1.054   1.879  2.2847  0.2997  0.8882
 1048SOL    HW3 4191   1.283   1.182   1.894 -0.9253 -1.5050 -0.1090
 1048SOL    MW4 4192   1.354   1.140   1.866  0.0493 -0.0132  0.0369
 1049SOL     OW 4193   1.585   1.286   1.967 -0.2473  0.2088 -0.0671
 1049SOL    HW2 4194   1.593   1.372   1.925 -3.3748  0.8197  0.4441
 1049SOL    HW3 4195   1.519   1.240   1.915 -0.0910 -1.1292  0.8821
 1049SOL    MW4 4196   1.578   1.291   1.954 -0.6393  0.1128  0.1256
 1050SOL     OW 4197   1.586   1.545   1.857  0.4275 -0.2790 -0.4721
 1050SOL    HW2 4198   1.667   1.577   1.896  0.6441 -0.3443 -0.8740
 1050SOL    HW3 4199   1.517   1.595   1.901  0.6406 -0.7169  0.3692
 1050SOL    MW4 4200   1.587   1.556   1.868  0.4842 -0.3454 -0.4141
 1051SOL     OW 4201   1.373   1.667   2.011  0.0897 -0.4239  0.2700
 1051SOL    HW2 4202   1.346   1.658   2.103 -1.3919  0.6809 -0.0485
 1051SOL    HW3 4203   1.296   1.640   1.961  0.7434 -0.5923 -0.6571
 1051SOL    MW4 4204   1.360   1.662   2.017 -0.0195 -0.3004  0.1057
 1052SOL     OW 4205   1.351   1.919   1.889  0.3497  0.0901  0.3242
 1052SOL    HW2 4206   1.346   1.849   1.954 -0.3201  0.8824  1.1417
 1052SOL    HW3 4207   1.277   1.976   1.910 -0.5745 -0.2635 -1.8793
 1052SOL    MW4 4208   1.341   1.917   1.900  0.1394  0.1479  0.1413
 1053SOL     OW 4209   1.584   2.082   1.990  0.5199 -0.2885  0.6787
 1053SOL    HW2 4210   1.580   2.169   1.951  0.5695 -0.3283  0.5832
 1053SOL    HW3 4211   1.508   2.036   1.954  1.2358 -0.7137 -0.3306
 1053SOL    MW4 4212   1.573   2.087   1.980  0.6209 -0.3499  0.5330
 1054SOL     OW 4213   1.548   2.338   1.883 -0.1415 -0.6360  0.3163
 1054SOL    HW2 4214   1.642   2.356   1.889 -0.6464  2.2901  0.0151
 1054SOL    HW3 4215   1.530   2.333   1.789 -0.3225 -1.0172  0.3693
 1054SOL    MW4 4216   1.558   2.340   1.871 -0.2320 -0.3003  0.2835
 1055SOL     OW 4217   1.321   2.450   1.998 -0.0965 -0.3922 -0.1337
 1055SOL    HW2 4218   1.326   2.529   1.944 -0.4315 -0.1342  0.2056
 1055SOL    HW3 4219   1.397   2.398   1.972  0.9237  0.6744  0.6334
 1055SOL    MW4 4220   1.332   2.454   1.988 -0.0061 -0.2174  0.0123
 1056SOL     OW 4221   1.346   2.697   1.862  0.7251  0.4988  0.0170
 1056SOL    HW2 4222   1.269   2.743   1.896  0.1948 -1.2015  1.1802
 1056SOL    HW3 4223   1.326   2.683   1.770 -0.1478  0.5119  0.1970
 1056SOL    MW4 4224   1.333   2.701   1.854  0.5399  0.2762  0.1942
 1057SOL     OW 4225   1.595   2.805   1.978  0.1703 -0.3590 -0.2287
 1057SOL    HW2 4226   1.666   2.751   1.945 -0.2638 -0.5211 -0.8930
 1057SOL    HW3 4227   1.516   2.762   1.947 -0.1736  0.8534 -1.0745
 1057SOL    MW4 4228   1.594   2.792   1.970  0.0676 -0.2204 -0.4279
 1058SOL     OW 4229   1.614   3.056   1.886  0.1101  0.0664 -0.1073
 1058SOL    HW2 4230   1.608   2.966   1.919 -0.8674  0.1981  0.1175
 1058SOL    HW3 4231   1.635   3.046   1.793  0.4919 -0.3817  0.0256
 1058SOL    MW4 4232   1.616   3.042   1.878  0.0315  0.0247 -0.0601
 1059SOL     OW 4233   1.401   3.195   2.017 -0.7371  0.2555 -0.1141
 1059SOL    HW2 4234   1.464   3.146   1.964 -0.8402 -1.1293  1.0157
 1059SOL    HW3 4235   1.318   3.186   1.970 -1.1710 -2.3077  1.0325
 1059SOL    MW4 4236   1.399   3.187   2.004 -0.8079 -0.2654  0.1863
 1060SOL     OW 4237   1.423   3.425   1.878 -0.1889  0.1707 -0.2442
 1060SOL    HW2 4238   1.418   3.342   1.926 -0.9441 -0.0115 -0.6329
 1060SOL    HW3 4239   1.343   3.472   1.902 -1.0052 -0.2886 -1.9850
 1060SOL    MW4 4240   1.411   3.420   1.887 -0.3963  0.0861 -0.5251
 1061SOL     OW 4241   1.611   3.623   1.937 -0.0982 -0.2445  0.3676
 1061SOL    HW2 4242   1.602   3.627   2.032 -0.2013  0.5364  0.3241
 1061SOL    HW3 4243   1.557   3.548   1.911 -0.6706 -0.0018  0.8421
 1061SOL    MW4 4244   1.603   3.614   1.946 -0.1873 -0.1095  0.4245
 1062SOL     OW 4245   1.595   3.895   1.863  0.2564  0.0616  0.2340
 1062SOL    HW2 4246   1.676   3.930   1.899  0.4949  0.4300 -0.6544
 1062SOL    HW3 4247   1.597   3.802   1.885  0.6426  0.1823  0.7175
 1062SOL    MW4 4248   1.606   3.888   1.871  0.3389  0.1261  0.1806
 1063SOL     OW 4249   1.367   4.016   2.016  0.5102 -0.0825  0.1262
 1063SOL    HW2 4250   1.445   3.981   1.973 -0.6346 -1.5190 -0.8231
 1063SOL    HW3 4251   1.300   3.949   2.003 -0.9452  1.2143  0.7530
 1063SOL    MW4 4252   1.369   4.003   2.008  0.1671 -0.1010  0.0837
 1064SOL     OW 4253   1.356   4.257   1.863 -0.3943 -0.1454 -0.0831
 1064SOL    HW2 4254   1.357   4.165   1.889  2.3258 -0.0618  0.2757
 1064SOL    HW3 4255   1.364   4.256   1.768  0.9481 -0.2878  0.0188
 1064SOL    MW4 4256   1.357   4.245   1.854  0.1417 -0.1531 -0.0223
 1065SOL     OW 4257   1.533   4.442   1.947 -0.4341 -0.1431  0.1304
 1065SOL    HW2 4258   1.561   4.430   2.037 -2.0114  0.0673  0.6569
 1065SOL    HW3 4259   1.471   4.371   1.931 -0.3564 -0.0344 -0.7100
 1065SOL    MW4 4260   1.529   4.431   1.957 -0.6320 -0.1010  0.0889
 1066SOL     OW 4261   2.060   0.033   1.855 -0.2008  0.0382 -0.2032
 1066SOL    HW2 4262   2.139   0.066   1.897 -0.2209 -1.4050  1.0228
 1066SOL    HW3 4263   2.051  -0.057   1.888 -0.6070 -0.8970 -2.7715
 1066SOL    MW4 4264   2.069   0.025   1.865 -0.2570 -0.2756 -0.3803
 1067SOL     OW 4265   1.812   0.123   1.939 -0.8967 -0.4948  0.2721
 1067SOL    HW2 4266   1.816   0.096   2.030 -0.8406  1.0548  0.7443
 1067SOL    HW3 4267   1.896   0.095   1.901  0.4448  1.7184  1.5198
 1067SOL    MW4 4268   1.824   0.116   1.946 -0.7123  0.0017  0.4990
 1068SOL     OW 4269   1.824   0.389   1.881  0.7364 -0.0193  0.2727
 1068SOL    HW2 4270   1.820   0.294   1.890 -0.5317  0.0730  0.7086
 1068SOL    HW3 4271   1.817   0.404   1.787  0.1631 -0.3148  0.2691
 1068SOL    MW4 4272   1.823   0.379   1.870  0.4935 -0.0461  0.3297
 1069SOL     OW 4273   2.056   0.474   2.003  0.0643 -0.5107  0.5750
 1069SOL    HW2 4274   2.066   0.569   1.991 -0.6129 -0.4481  0.4663
 1069SOL    HW3 4275   1.973   0.453   1.959  1.4422 -1.5711 -1.6121
 1069SOL    MW4 4276   2.046   0.484   1.995  0.1567 -0.6423  0.2721
 1070SOL     OW 4277   2.025   0.744   1.927 -0.0717  0.6223 -0.2404
 1070SOL    HW2 4278   2.104   0.790   1.955  0.3087  1.1772 -2.1182
 1070SOL    HW3 4279   2.022   0.757   1.832 -1.5784 -0.7195 -0.4066
 1070SOL    MW4 4280   2.035   0.752   1.918 -0.2203  0.5185 -0.5101
 1071SOL     OW 4281   1.786   0.885   1.994  0.0148 -0.1481  0.1319
 1071SOL    HW2 4282   1.802   0.971   1.956 -1.6781  0.7635  1.4122
 1071SOL    HW3 4283   1.865   0.835   1.975  1.0744  1.7336 -0.5091
 1071SOL    MW4 4284   1.799   0.890   1.986 -0.0687  0.2204  0.2162
 1072SOL     OW 4285   1.828   1.147   1.913  0.1977 -0.6172 -0.2944
 1072SOL    HW2 4286   1.749   1.185   1.951  0.7243 -1.0695  1.3169
 1072SOL    HW3 4287   1.819   1.162   1.819 -1.8601 -0.7568 -0.1601
 1072SOL    MW4 4288   1.816   1.154   1.905 -0.0043 -0.6953 -0.0641
 1073SOL     OW 4289   2.032   1.304   1.998 -0.0127  0.0219 -0.5178
 1073SOL    HW2 4290   2.099   1.248   1.959  0.3352 -0.2051  0.3983
 1073SOL    HW3 4291   1.949   1.259   1.979  0.1639 -0.1260 -0.9274
 1073SOL    MW4 4292   2.030   1.290   1.990  0.0565 -0.0276 -0.4509
 1074SOL     OW 4293   2.040   1.558   1.889 -0.2956 -0.1889 -0.3815
 1074SOL    HW2 4294   2.030   1.479   1.942 -0.7670 -0.0026 -0.1934
 1074SOL    HW3 4295   2.049   1.525   1.799 -1.6429 -0.4119 -0.4443
 1074SOL    MW4 4296   2.040   1.543   1.884 -0.5355 -0.1937 -0.3650
 1075SOL     OW 4297   1.807   1.657   1.977 -0.3326 -0.2494  0.2602
 1075SOL    HW2 4298   1.802   1.749   1.952  0.0339  0.2068  1.8267
 1075SOL    HW3 4299   1.888   1.626   1.937  0.0270  0.3629  0.5074
 1075SOL    MW4 4300   1.817   1.665   1.968 -0.2368 -0.1084  0.4995
 1076SOL     OW 4301   1.802   1.921   1.903 -0.4756 -0.3986  0.3275
 1076SOL    HW2 4302   1.738   1.989   1.924  0.2768  0.3557  0.2113
 1076SOL    HW3 4303   1.798   1.912   1.808  0.9643  1.0271  0.1235
 1076SOL    MW4 4304   1.793   1.929   1.894 -0.1864 -0.1110  0.2853
 1077SOL     OW 4305   2.052   2.026   1.991  0.3506  0.1584  0.4582
 1077SOL    HW2 4306   2.133   1.978   1.972  1.0477  1.0936  0.9817
 1077SOL    HW3 4307   1.982   1.972   1.954  1.1579 -1.0095  0.6125
 1077SOL    MW4 4308   2.054   2.013   1.984  0.5491  0.1277  0.5476
 1078SOL     OW 4309   2.052   2.288   1.880  0.6430 -0.3196  0.3029
 1078SOL    HW2 4310   2.115   2.338   1.932  1.2623  0.6209 -1.3140
 1078SOL    HW3 4311   2.057   2.199   1.915  2.4386 -0.1176  0.5784
 1078SOL    MW4 4312   2.061   2.283   1.892  0.9616 -0.1689  0.1259
 1079SOL     OW 4313   1.800   2.383   1.970 -0.3295  0.1622 -0.2057
 1079SOL    HW2 4314   1.804   2.404   2.063 -0.0373 -0.0182 -0.1757
 1079SOL    HW3 4315   1.888   2.351   1.949 -0.6306 -0.5594 -0.3631
 1079SOL    MW4 4316   1.812   2.382   1.980 -0.3307  0.0432 -0.2225
 1080SOL     OW 4317   1.799   2.677   1.865 -0.0673 -0.2196  0.3419
 1080SOL    HW2 4318   1.811   2.589   1.899  1.9275  0.1151  0.5302
 1080SOL    HW3 4319   1.796   2.666   1.770 -0.2083 -0.5278  0.3813
 1080SOL    MW4 4320   1.800   2.664   1.857  0.1773 -0.2161  0.3720
 1081SOL     OW 4321   2.013   2.834   2.000  0.0411 -0.0009 -0.2978
 1081SOL    HW2 4322   2.006   2.843   2.095  0.9533 -2.3830  0.0115
 1081SOL    HW3 4323   1.941   2.775   1.977  0.8013 -0.6959 -0.8819
 1081SOL    MW4 4324   2.002   2.828   2.010  0.2617 -0.4069 -0.3341
 1082SOL     OW 4325   2.017   3.082   1.858 -0.0381 -0.2795  0.0646
 1082SOL    HW2 4326   1.950   3.137   1.898 -0.2902 -0.2401 -0.4059
 1082SOL    HW3 4327   2.002   2.995   1.895 -1.6909 -0.7392 -1.6130
 1082SOL    MW4 4328   2.006   3.078   1.868 -0.2894 -0.3350 -0.2188
 1083SOL     OW 4329   1.824   3.244   1.979 -0.3306  0.4343  0.1835
 1083SOL    HW2 4330   1.811   3.248   2.074  0.7433  0.1831  0.3479
 1083SOL    HW3 4331   1.750   3.193   1.947 -0.0267 -0.5648  1.0366
 1083SOL    MW4 4332   1.813   3.238   1.987 -0.1488  0.2694  0.3177
 1084SOL     OW 4333   1.820   3.485   1.848 -0.4430 -0.0318 -0.5143
 1084SOL    HW2 4334   1.813   3.402   1.896  1.9939  0.0334  0.0018
 1084SOL    HW3 4335   1.752   3.541   1.886 -0.9322 -1.1906  0.3407
 1084SOL    MW4 4336   1.810   3.481   1.859 -0.1860 -0.1760 -0.3334
 1085SOL     OW 4337   2.036   3.608   1.961 -0.1456 -0.2446  0.0465
 1085SOL    HW2 4338   2.019   3.701   1.947 -0.3349 -0.2480  0.2561
 1085SOL    HW3 4339   1.967   3.563   1.914  0.3688 -0.2946 -0.6660
 1085SOL    MW4 4340   2.025   3.614   1.953 -0.1027 -0.2517 -0.0199
 1086SOL     OW 4341   2.004   3.893   1.919  0.4623 -0.0031  0.1620
 1086SOL    HW2 4342   2.088   3.931   1.944  1.8526 -2.2770 -0.9789
 1086SOL    HW3 4343   2.010   3.881   1.824 -0.4084 -1.9773  0.3365
 1086SOL    MW4 4344   2.016   3.897   1.910  0.5309 -0.5635  0.0345
 1087SOL     OW 4345   1.800   4.038   2.026 -0.3162  0.5194  0.0082
 1087SOL    HW2 4346   1.822   4.130   2.009  0.8844  0.4982  1.3159
 1087SOL    HW3 4347   1.873   3.989   1.990 -0.2904  0.1690  0.5287
 1087SOL    MW4 4348   1.812   4.044   2.019 -0.1544  0.4704  0.2494
 1088SOL     OW 4349   1.795   4.339   1.881  0.3320 -0.2116 -0.1107
 1088SOL    HW2 4350   1.701   4.359   1.889 -0.3360 -3.2716  0.2712
 1088SOL    HW3 4351   1.807   4.317   1.789  0.7656  0.5908 -0.2469
 1088SOL    MW4 4352   1.784   4.339   1.870  0.3010 -0.5094 -0.0783
 1089SOL     OW 4353   2.034   4.433   1.977 -0.4943  0.1372  0.1671
 1089SOL    HW2 4354   2.090   4.366   1.938 -0.5507  0.0924  0.1644
 1089SOL    HW3 4355   1.946   4.413   1.944 -0.3121  0.9446 -0.8320
 1089SOL    MW4 4356   2.029   4.422   1.967 -0.4777  0.2378  0.0349
 1090SOL     OW 4357   2.471   4.594   1.838 -0.2550  0.2586 -0.1284
 1090SOL    HW2 4358   2.538   4.631   1.896  0.1129  0.9308 -0.9649
 1090SOL    HW3 4359   2.464   4.503   1.865  0.3457  0.4167  0.5805
 1090SOL    MW4 4360   2.479   4.587   1.849 -0.1272  0.3682 -0.1452
 1091SOL     OW 4361   2.302   0.109   1.966 -0.3411  0.2035  0.0963
 1091SOL    HW2 4362   2.304   0.102   2.061 -1.5817 -0.3661  0.0946
 1091SOL    HW3 4363   2.342   0.028   1.935 -1.4577 -0.3785  0.1393
 1091SOL    MW4 4364   2.308   0.097   1.975 -0.6521  0.0516  0.1017
 1092SOL     OW 4365   2.255   0.368   1.852  0.0023 -0.2108  0.2129
 1092SOL    HW2 4366   2.266   0.277   1.881  1.1730  0.3938  1.7365
 1092SOL    HW3 4367   2.171   0.395   1.891 -1.4582 -1.2977 -2.0732
 1092SOL    MW4 4368   2.245   0.359   1.861 -0.0360 -0.2744  0.1123
 1093SOL     OW 4369   2.468   0.469   1.991 -0.0544 -0.2690  0.0624
 1093SOL    HW2 4370   2.545   0.416   1.968  0.6198  0.8447 -0.3139
 1093SOL    HW3 4371   2.400   0.440   1.930 -0.2521 -1.9590  1.0394
 1093SOL    MW4 4372   2.469   0.458   1.980  0.0085 -0.3451  0.1417
 1094SOL     OW 4373   2.480   0.722   1.877 -0.2182 -0.4992 -0.2741
 1094SOL    HW2 4374   2.456   0.642   1.923 -0.4363 -0.6431 -0.6378
 1094SOL    HW3 4375   2.475   0.699   1.785  0.3408 -0.2434 -0.3680
 1094SOL    MW4 4376   2.476   0.709   1.871 -0.1733 -0.4845 -0.3345
 1095SOL     OW 4377   2.267   0.863   1.992 -0.0578  0.5473  0.1657
 1095SOL    HW2 4378   2.280   0.849   2.086 -0.2272  0.4065  0.1692
 1095SOL    HW3 4379   2.335   0.810   1.950 -1.0565 -0.7570  0.1631
 1095SOL    MW4 4380   2.278   0.854   1.999 -0.2119  0.3566  0.1658
 1096SOL     OW 4381   2.238   1.139   1.909 -0.0577 -0.2259 -0.1405
 1096SOL    HW2 4382   2.320   1.185   1.929  0.1654 -0.6045 -0.1863
 1096SOL    HW3 4383   2.258   1.047   1.925 -0.7522 -0.2269  0.7890
 1096SOL    MW4 4384   2.252   1.133   1.914 -0.1199 -0.2760 -0.0239
 1097SOL     OW 4385   2.465   1.260   1.986 -0.2010  0.2558 -0.0199
 1097SOL    HW2 4386   2.473   1.245   2.080 -2.8618 -1.5668 -0.0193
 1097SOL    HW3 4387   2.479   1.354   1.975  2.9595  0.0770  1.8091
 1097SOL    MW4 4388   2.468   1.270   1.997 -0.1350 -0.0083  0.2215
 1098SOL     OW 4389   2.475   1.529   1.892  0.2135 -0.5752  0.2731
 1098SOL    HW2 4390   2.400   1.575   1.929  0.8505  0.6006  0.1377
 1098SOL    HW3 4391   2.462   1.535   1.797  0.5238 -0.2836  0.2473
 1098SOL    MW4 4392   2.464   1.536   1.884  0.3385 -0.3816  0.2519
 1099SOL     OW 4393   2.265   1.673   1.995 -0.3153  0.6078 -0.5754
 1099SOL    HW2 4394   2.258   1.683   2.090 -0.0275  0.5158 -0.5437
 1099SOL    HW3 4395   2.181   1.635   1.969  0.3497 -1.2604 -0.0872
 1099SOL    MW4 4396   2.253   1.669   2.004 -0.1896  0.3492 -0.5068
 1100SOL     OW 4397   2.293   1.913   1.875 -0.0292 -0.0965 -0.1786
 1100SOL    HW2 4398   2.364   1.961   1.918 -1.1205  0.2011  1.3053
 1100SOL    HW3 4399   2.288   1.830   1.923 -1.1160  0.1533  0.1377
 1100SOL    MW4 4400   2.302   1.908   1.887 -0.3166 -0.0243  0.0590
 1101SOL     OW 4401   2.517   2.023   2.008 -0.5346  0.5615  0.3788
 1101SOL    HW2 4402   2.600   1.986   1.978 -0.6570  0.9378 -0.4231
 1101SOL    HW3 4403   2.520   2.115   1.981 -2.7192 -0.2233 -2.8854
 1101SOL    MW4 4404   2.528   2.030   2.001 -0.8390  0.5076 -0.1577
 1102SOL     OW 4405   2.498   2.296   1.898  0.3873 -0.1570  0.2748
 1102SOL    HW2 4406   2.565   2.351   1.937 -0.0803  2.3393 -2.2900
 1102SOL    HW3 4407   2.415   2.332   1.932  0.2231 -1.7070  1.5561
 1102SOL    MW4 4408   2.496   2.308   1.908  0.3039 -0.0322  0.1055
 1103SOL     OW 4409   2.263   2.426   1.997 -0.2066 -0.1664  0.2081
 1103SOL    HW2 4410   2.254   2.451   2.089  0.5548  0.2422  0.1718
 1103SOL    HW3 4411   2.253   2.508   1.949 -1.2026 -0.4724 -0.1102
 1103SOL    MW4 4412   2.260   2.440   2.003 -0.2376 -0.1529  0.1614
 1104SOL     OW 4413   2.223   2.681   1.909 -0.0940 -0.1033  0.1143
 1104SOL    HW2 4414   2.149   2.740   1.925  0.3778  1.0953 -1.9680
 1104SOL    HW3 4415   2.227   2.672   1.814  1.0900 -1.9295  0.3128
 1104SOL    MW4 4416   2.214   2.688   1.899  0.1244 -0.1861 -0.1342
 1105SOL     OW 4417   2.457   2.810   2.001 -0.1273 -0.2101 -0.3471
 1105SOL    HW2 4418   2.464   2.904   1.985  0.2912  0.1943  1.9905
 1105SOL    HW3 4419   2.377   2.784   1.957 -1.3151  1.6402  0.6432
 1105SOL    MW4 4420   2.448   2.819   1.993 -0.2288  0.0874  0.0920
 1106SOL     OW 4421   2.498   3.062   1.914 -0.1085 -0.1112  0.1145
 1106SOL    HW2 4422   2.424   3.113   1.948  0.6894  0.7235  0.5972
 1106SOL    HW3 4423   2.486   3.063   1.819 -0.5964  0.2001  0.1774
 1106SOL    MW4 4424   2.486   3.069   1.906 -0.0676  0.0400  0.1865
 1107SOL     OW 4425   2.255   3.174   1.966 -0.5185  0.3248 -0.3776
 1107SOL    HW2 4426   2.232   3.192   2.057  0.7172  0.4791 -0.0950
 1107SOL    HW3 4427   2.172   3.151   1.925 -0.8266 -1.5440  1.2178
 1107SOL    MW4 4428   2.241   3.173   1.973 -0.3961  0.0986 -0.1298
 1108SOL     OW 4429   2.264   3.440   1.857 -0.6674  0.6733 -0.4425
 1108SOL    HW2 4430   2.252   3.351   1.891 -1.9452  0.5260 -1.2435
 1108SOL    HW3 4431   2.183   3.485   1.881 -0.5029  1.2957 -1.0522
 1108SOL    MW4 4432   2.251   3.434   1.865 -0.8143  0.7360 -0.6286
 1109SOL     OW 4433   2.467   3.563   1.978 -0.1807  0.3446  0.0086
 1109SOL    HW2 4434   2.466   3.582   2.072 -0.2363  1.9001 -0.2875
 1109SOL    HW3 4435   2.383   3.522   1.961 -0.4868  0.7519  0.5174
 1109SOL    MW4 4436   2.456   3.560   1.988 -0.2284  0.6035  0.0367
 1110SOL     OW 4437   2.484   3.826   1.863  0.0894 -0.0714 -0.0632
 1110SOL    HW2 4438   2.414   3.873   1.910 -1.1471  0.0341 -1.9540
 1110SOL    HW3 4439   2.476   3.736   1.894 -0.2609  0.1218  0.4340
 1110SOL    MW4 4440   2.474   3.821   1.874 -0.1199 -0.0320 -0.2471
 1111SOL     OW 4441   2.272   3.972   1.980 -0.0450  0.0623  0.0568
 1111SOL    HW2 4442   2.291   3.996   2.071 -0.8155 -0.0846  0.2592
 1111SOL    HW3 4443   2.250   4.055   1.937  2.1894  0.4310 -0.4912
 1111SOL    MW4 4444   2.272   3.986   1.986  0.1481  0.0915  0.0112
 1112SOL     OW 4445   2.214   4.225   1.875 -0.2045 -0.0480  0.0624
 1112SOL    HW2 4446   2.298   4.248   1.914 -0.0214  0.6972 -0.7685
 1112SOL    HW3 4447   2.222   4.249   1.783 -1.7279  1.0608  0.2051
 1112SOL    MW4 4448   2.226   4.231   1.868 -0.3814  0.1966 -0.0284
 1113SOL     OW 4449   2.452   4.330   1.947  0.2573  0.7449  0.3674
 1113SOL    HW2 4450   2.453   4.344   2.041 -0.0298  1.9347  0.2077
 1113SOL    HW3 4451   2.537   4.289   1.928  0.9664  1.9084  0.9467
 1113SOL    MW4 4452   2.463   4.327   1.957  0.3130  1.0554  0.4228
 1114SOL     OW 4453   2.897   4.621   1.850 -0.3779  0.4740  0.3537
 1114SOL    HW2 4454   2.971   4.665   1.891 -2.5775  2.3376  2.4486
 1114SOL    HW3 4455   2.889   4.538   1.898  0.1801  0.3581  0.2552
 1114SOL    MW4 4456   2.906   4.616   1.862 -0.5945  0.7046  0.6171
 1115SOL     OW 4457   2.681   0.058   1.986 -0.2924  0.1628 -0.5424
 1115SOL    HW2 4458   2.694   0.061   2.081 -1.0966 -0.8076 -0.3913
 1115SOL    HW3 4459   2.766   0.030   1.951 -0.1814 -0.0986 -0.0641
 1115SOL    MW4 4460   2.694   0.055   1.994 -0.3838  0.0003 -0.4594
 1116SOL     OW 4461   2.693   0.332   1.912 -0.8980 -0.2097  0.0690
 1116SOL    HW2 4462   2.777   0.369   1.941 -0.0697 -1.1415 -1.0821
 1116SOL    HW3 4463   2.700   0.238   1.928 -1.2642 -0.4493 -1.0897
 1116SOL    MW4 4464   2.705   0.325   1.918 -0.8371 -0.3642 -0.2357
 1117SOL     OW 4465   2.941   0.441   1.964 -0.1988  0.3524  0.1729
 1117SOL    HW2 4466   3.013   0.392   1.924 -0.8795 -1.7299  1.4394
 1117SOL    HW3 4467   2.952   0.530   1.931  2.1155 -0.2427 -0.7744
 1117SOL    MW4 4468   2.952   0.446   1.954  0.0167 -0.0009  0.2150
 1118SOL     OW 4469   2.917   0.725   1.911  0.0296  0.0939 -0.4533
 1118SOL    HW2 4470   2.985   0.786   1.938 -0.2646 -0.0667  0.7119
 1118SOL    HW3 4471   2.835   0.766   1.941 -0.2524 -0.4122 -0.5223
 1118SOL    MW4 4472   2.915   0.738   1.919 -0.0464  0.0059 -0.3087
 1119SOL     OW 4473   2.690   0.839   2.023 -0.1598  0.1922  0.1233
 1119SOL    HW2 4474   2.690   0.933   2.004 -0.3005  0.2173  0.2521
 1119SOL    HW3 4475   2.622   0.803   1.966 -0.3919  0.2277  0.3787
 1119SOL    MW4 4476   2.681   0.846   2.013 -0.2090  0.2002  0.1740
 1120SOL     OW 4477   2.707   1.101   1.903 -0.1587  0.1972  0.3531
 1120SOL    HW2 4478   2.624   1.148   1.906 -0.9311 -1.1416 -0.1532
 1120SOL    HW3 4479   2.736   1.108   1.812 -0.4500 -0.6265  0.1999
 1120SOL    MW4 4480   2.700   1.108   1.892 -0.2990 -0.0881  0.2661
 1121SOL     OW 4481   2.901   1.278   2.022  0.4854  0.1481 -0.1410
 1121SOL    HW2 4482   2.880   1.367   1.996  1.2519  0.4623  0.3087
 1121SOL    HW3 4483   2.834   1.224   1.980 -1.3037  1.1385  1.3754
 1121SOL    MW4 4484   2.890   1.282   2.013  0.3504  0.3202  0.1184
 1122SOL     OW 4485   2.912   1.536   1.899 -0.0792  0.0255 -0.2269
 1122SOL    HW2 4486   2.993   1.581   1.925 -1.4325  2.7863 -0.6375
 1122SOL    HW3 4487   2.913   1.539   1.803  0.3884 -1.9838 -0.3298
 1122SOL    MW4 4488   2.923   1.542   1.889 -0.1961  0.1247 -0.2946
 1123SOL     OW 4489   2.698   1.599   2.029  0.1120 -0.4388  0.2890
 1123SOL    HW2 4490   2.767   1.566   1.973 -0.4525 -1.1165 -0.0153
 1123SOL    HW3 4491   2.618   1.588   1.978 -0.1580  0.9048  0.3908
 1123SOL    MW4 4492   2.696   1.593   2.015  0.0019 -0.3509  0.2623
 1124SOL     OW 4493   2.728   1.861   1.901 -0.2087  0.5254  0.0656
 1124SOL    HW2 4494   2.805   1.894   1.947 -0.1822  0.9789 -0.3021
 1124SOL    HW3 4495   2.706   1.780   1.946 -0.0581  0.8604  0.7431
 1124SOL    MW4 4496   2.735   1.855   1.913 -0.1854  0.6295  0.1065
 1125SOL     OW 4497   2.923   2.062   1.978  0.4461  0.1379  0.1816
 1125SOL    HW2 4498   2.933   2.063   2.073  0.9932  1.0610  0.1227
 1125SOL    HW3 4499   3.009   2.035   1.946  0.2224 -0.3035 -0.0438
 1125SOL    MW4 4500   2.936   2.059   1.986  0.4887  0.2014  0.1441
 1126SOL     OW 4501   2.932   2.330   1.907  0.2212 -0.2514  0.2371
 1126SOL    HW2 4502   3.005   2.379   1.945  0.4608  0.3217 -0.9524
 1126SOL    HW3 4503   2.942   2.241   1.943  0.8906  0.0843  0.8976
 1126SOL    MW4 4504   2.943   2.324   1.917  0.3412 -0.1315  0.1673
 1127SOL     OW 4505   2.716   2.459   2.021  0.5465  0.2272  0.3554
 1127SOL    HW2 4506   2.720   2.542   1.974 -2.3321 -0.5636 -1.3879
 1127SOL    HW3 4507   2.797   2.414   1.997  1.0804  1.5974 -0.4501
 1127SOL    MW4 4508   2.727   2.464   2.012  0.2371  0.3037  0.0191
 1128SOL     OW 4509   2.707   2.719   1.896 -0.1719 -0.2966 -0.1507
 1128SOL    HW2 4510   2.622   2.752   1.926 -0.4522 -1.2416  0.0942
 1128SOL    HW3 4511   2.695   2.705   1.802 -0.5352 -1.2006  0.0295
 1128SOL    MW4 4512   2.694   2.721   1.888 -0.2568 -0.5406 -0.0946
 1129SOL     OW 4513   2.911   2.857   2.041 -0.0932 -0.4669 -0.0624
 1129SOL    HW2 4514   2.917   2.946   2.007  0.0371  0.3321  1.9338
 1129SOL    HW3 4515   2.835   2.819   1.997 -1.4519  1.3696  0.6012
 1129SOL    MW4 4516   2.902   2.864   2.031 -0.2553 -0.1191  0.2885
 1130SOL     OW 4517   2.941   3.116   1.933 -0.2226 -0.0239  0.0119
 1130SOL    HW2 4518   3.022   3.149   1.971 -0.5359  1.0507 -0.2434
 1130SOL    HW3 4519   2.872   3.169   1.972 -0.8734 -1.2911  0.6445
 1130SOL    MW4 4520   2.943   3.127   1.943 -0.3498 -0.0493  0.0617
 1131SOL     OW 4521   2.705   3.222   2.009 -0.3168 -0.1402  0.4936
 1131SOL    HW2 4522   2.713   3.306   1.964  0.1809 -0.2778  0.3210
 1131SOL    HW3 4523   2.660   3.165   1.947  1.2287 -0.6126 -0.2222
 1131SOL    MW4 4524   2.700   3.226   1.995 -0.0472 -0.2207  0.3764
 1132SOL     OW 4525   2.717   3.467   1.881  0.0377  0.4831 -0.0847
 1132SOL    HW2 4526   2.797   3.511   1.910 -0.3378  0.8494  0.4108
 1132SOL    HW3 4527   2.647   3.509   1.931 -0.4295 -0.0491 -0.2823
 1132SOL    MW4 4528   2.718   3.478   1.892 -0.0735  0.4612 -0.0454
 1133SOL     OW 4529   2.939   3.589   1.967 -0.4067 -0.1208 -0.1626
 1133SOL    HW2 4530   2.943   3.601   2.062  0.4644  1.0292 -0.3474
 1133SOL    HW3 4531   3.021   3.546   1.945 -0.5098 -0.1792 -0.4286
 1133SOL    MW4 4532   2.950   3.585   1.977 -0.3054  0.0232 -0.2221
 1134SOL     OW 4533   2.913   3.857   1.873  0.4988 -0.2534 -0.2705
 1134SOL    HW2 4534   2.942   3.770   1.901  1.6373 -0.2658 -1.4362
 1134SOL    HW3 4535   2.889   3.845   1.781 -1.4668  0.1819  0.1610
 1134SOL    MW4 4536   2.914   3.844   1.864  0.3896 -0.1976 -0.3674
 1135SOL     OW 4537   2.687   3.971   1.985 -0.0042  0.3108 -0.2199
 1135SOL    HW2 4538   2.768   3.933   1.951 -0.6352  1.0634 -2.6733
 1135SOL    HW3 4539   2.617   3.921   1.942 -0.8859 -0.2004  1.7032
 1135SOL    MW4 4540   2.688   3.959   1.975 -0.2038  0.3426 -0.2898
 1136SOL     OW 4541   2.695   4.217   1.862  0.0836  0.1838 -0.2975
 1136SOL    HW2 4542   2.690   4.127   1.894 -1.1563  0.5385  0.5469
 1136SOL    HW3 4543   2.681   4.210   1.767 -0.3811 -0.4820 -0.1811
 1136SOL    MW4 4544   2.692   4.204   1.854 -0.1413  0.1428 -0.1707
 1137SOL     OW 4545   2.899   4.369   1.979  0.1717 -0.0106 -0.4061
 1137SOL    HW2 4546   2.898   4.361   2.074  1.0182  0.7869 -0.3141
 1137SOL    HW3 4547   2.822   4.322   1.949 -0.4594  0.2976  0.7257
 1137SOL    MW4 4548   2.889   4.362   1.987  0.2001  0.1353 -0.2446
 1138SOL     OW 4549   3.366   4.628   1.893 -0.1368 -0.1961 -0.2604
 1138SOL    HW2 4550   3.339   4.542   1.926 -0.9689  0.1462 -0.0301
 1138SOL    HW3 4551   3.362   4.620   1.798  0.8441 -0.7410 -0.2588
 1138SOL    MW4 4552   3.362   4.616   1.885 -0.1172 -0.2228 -0.2298
 1139SOL     OW 4553   3.129   0.053   1.977 -0.0045  0.0741  0.1286
 1139SOL    HW2 4554   3.135   0.058   2.073 -0.4062 -0.1677  0.1685
 1139SOL    HW3 4555   3.219   0.036   1.949  0.1586  0.3989  0.4473
 1139SOL    MW4 4556   3.141   0.051   1.986 -0.0360  0.0851  0.1760
 1140SOL     OW 4557   3.156   0.305   1.881  0.1194  0.1038  0.4454
 1140SOL    HW2 4558   3.124   0.217   1.900  0.1309 -0.0685 -0.3455
 1140SOL    HW3 4559   3.165   0.308   1.786  0.1489  0.9463  0.4696
 1140SOL    MW4 4560   3.153   0.294   1.871  0.1248  0.1922  0.3442
 1141SOL     OW 4561   3.387   0.452   1.981 -0.1009  0.0818 -0.5209
 1141SOL    HW2 4562   3.471   0.419   1.951  0.2004  0.1014  0.2845
 1141SOL    HW3 4563   3.322   0.402   1.932  0.3558 -1.6025  0.5465
 1141SOL    MW4 4564   3.389   0.441   1.971 -0.0009 -0.1378 -0.2738
 1142SOL     OW 4565   3.355   0.718   1.896 -0.0954  0.1997 -0.3671
 1142SOL    HW2 4566   3.273   0.754   1.932 -0.9054 -0.2981 -1.7074
 1142SOL    HW3 4567   3.362   0.631   1.935 -0.6299 -0.0729 -0.8598
 1142SOL    MW4 4568   3.345   0.712   1.906 -0.2728  0.0980 -0.6090
 1143SOL     OW 4569   3.132   0.862   2.000 -0.1947  0.2025  0.2657
 1143SOL    HW2 4570   3.153   0.863   2.093 -0.4722 -0.4853  0.3348
 1143SOL    HW3 4571   3.136   0.954   1.974 -2.2215  0.6416  1.4097
 1143SOL    MW4 4572   3.136   0.874   2.009 -0.4987  0.1697  0.4258
 1144SOL     OW 4573   3.128   1.135   1.918  0.1326  0.3383 -0.5234
 1144SOL    HW2 4574   3.206   1.190   1.927  0.3936  0.2216 -1.8591
 1144SOL    HW3 4575   3.055   1.193   1.939  0.4637  0.9643 -1.0537
 1144SOL    MW4 4576   3.129   1.150   1.922  0.2108  0.4055 -0.7696
 1145SOL     OW 4577   3.355   1.275   2.000 -0.1769  0.1640 -0.4232
 1145SOL    HW2 4578   3.340   1.274   2.094 -0.7371 -1.0476 -0.5152
 1145SOL    HW3 4579   3.344   1.367   1.975  0.7536  0.6217  0.8044
 1145SOL    MW4 4580   3.351   1.287   2.009 -0.1281  0.0645 -0.2734
 1146SOL     OW 4581   3.378   1.528   1.884 -0.4713  0.4850 -0.2354
 1146SOL    HW2 4582   3.451   1.571   1.929  0.1781 -0.0336 -0.7695
 1146SOL    HW3 4583   3.300   1.566   1.922  0.0852  0.9472  0.4512
 1146SOL    MW4 4584   3.377   1.539   1.895 -0.3122  0.4775 -0.2153
 1147SOL     OW 4585   3.166   1.652   1.984 -0.0787 -0.0258  0.5256
 1147SOL    HW2 4586   3.151   1.647   2.079  0.2817  0.7902  0.6323
 1147SOL    HW3 4587   3.163   1.746   1.965  0.5807 -0.1413 -0.1516
 1147SOL    MW4 4588   3.164   1.664   1.994  0.0558  0.0666  0.4504
 1148SOL     OW 4589   3.159   1.929   1.916  0.2141  0.2743  0.8420
 1148SOL    HW2 4590   3.245   1.951   1.952  0.3414 -0.3339  0.9145
 1148SOL    HW3 4591   3.175   1.918   1.822  0.2349  0.0744  0.8683
 1148SOL    MW4 4592   3.173   1.930   1.909  0.2337  0.1677  0.8550
 1149SOL     OW 4593   3.392   2.054   2.039 -0.1401 -0.5453 -0.0933
 1149SOL    HW2 4594   3.469   2.024   1.993  0.8117 -0.1707  1.2108
 1149SOL    HW3 4595   3.385   2.147   2.017  1.5479  0.1542  2.1347
 1149SOL    MW4 4596   3.401   2.063   2.030  0.2082 -0.4036  0.3727
 1150SOL     OW 4597   3.362   2.305   1.925  0.3821  0.0857 -0.4461
 1150SOL    HW2 4598   3.284   2.352   1.956  0.5542 -0.4200  0.8046
 1150SOL    HW3 4599   3.369   2.329   1.833 -1.6205 -0.3657 -0.7471
 1150SOL    MW4 4600   3.353   2.315   1.917  0.1406 -0.0406 -0.3208
 1151SOL     OW 4601   3.156   2.456   2.015  0.6263  0.4581 -0.5764
 1151SOL    HW2 4602   3.174   2.473   2.107 -3.1548  0.9964  0.1495
 1151SOL    HW3 4603   3.145   2.543   1.976  0.6489  0.1951 -1.1689
 1151SOL    MW4 4604   3.157   2.470   2.022  0.1304  0.4944 -0.5588
 1152SOL     OW 4605   3.123   2.706   1.936  0.3253  0.0640  0.1834
 1152SOL    HW2 4606   3.051   2.760   1.970  0.7576 -0.2290  1.5979
 1152SOL    HW3 4607   3.109   2.704   1.841  0.1881  2.5281  0.1177
 1152SOL    MW4 4608   3.111   2.713   1.928  0.3642  0.3504  0.3614
 1153SOL     OW 4609   3.365   2.838   2.007 -0.0199  0.1083 -0.1620
 1153SOL    HW2 4610   3.372   2.830   2.102 -1.4139 -0.4327 -0.0996
 1153SOL    HW3 4611   3.277   2.806   1.986  0.1602  0.5148 -1.6001
 1153SOL    MW4 4612   3.355   2.833   2.017 -0.1800  0.0906 -0.3435
 1154SOL     OW 4613   3.409   3.096   1.895 -0.3054 -0.1210  0.1730
 1154SOL    HW2 4614   3.484   3.139   1.936 -0.5212 -0.8216  1.3293
 1154SOL    HW3 4615   3.407   3.009   1.935 -2.5844  0.3869  1.2181
 1154SOL    MW4 4616   3.419   3.090   1.906 -0.6345 -0.1464  0.4634
 1155SOL     OW 4617   3.196   3.220   1.988  0.1888 -0.2109  0.2924
 1155SOL    HW2 4618   3.191   3.302   1.938 -0.8987 -0.6962 -0.4212
 1155SOL    HW3 4619   3.275   3.176   1.955  1.2373  0.9145  1.2661
 1155SOL    MW4 4620   3.206   3.225   1.977  0.1837 -0.1265  0.3267
 1156SOL     OW 4621   3.178   3.468   1.885 -0.3627  0.3909 -0.1623
 1156SOL    HW2 4622   3.253   3.523   1.909 -2.5662  2.8780  1.2113
 1156SOL    HW3 4623   3.172   3.477   1.789  1.7110 -0.6696 -0.4097
 1156SOL    MW4 4624   3.187   3.477   1.875 -0.3798  0.5791 -0.0137
 1157SOL     OW 4625   3.386   3.633   2.012 -0.3532 -0.0698 -0.2400
 1157SOL    HW2 4626   3.475   3.604   1.992  0.1557  0.8848  0.6092
 1157SOL    HW3 4627   3.377   3.715   1.965 -0.8138 -0.1913 -0.3669
 1157SOL    MW4 4628   3.397   3.640   2.003 -0.3468  0.0401 -0.1447
 1158SOL     OW 4629   3.395   3.877   1.828  0.2703  0.7857  0.2323
 1158SOL    HW2 4630   3.315   3.918   1.862  0.7475  1.5078  0.5045
 1158SOL    HW3 4631   3.384   3.880   1.733 -1.5243 -2.1533  0.2912
 1158SOL    MW4 4632   3.383   3.883   1.820  0.0965  0.4932  0.2760
 1159SOL     OW 4633   3.162   3.961   1.943 -0.5094  0.1007  0.3352
 1159SOL    HW2 4634   3.163   3.972   2.038 -0.7854  1.2416  0.2150
 1159SOL    HW3 4635   3.070   3.943   1.922 -0.5581  0.4770  0.2213
 1159SOL    MW4 4636   3.150   3.960   1.953 -0.5522  0.3009  0.3043
 1160SOL     OW 4637   3.124   4.235   1.883 -0.1743 -0.1024  0.1562
 1160SOL    HW2 4638   3.111   4.142   1.900  0.2635 -0.0061  1.0165
 1160SOL    HW3 4639   3.046   4.277   1.918 -0.0592 -0.0781  0.3851
 1160SOL    MW4 4640   3.112   4.228   1.890 -0.1014 -0.0865  0.2999
 1161SOL     OW 4641   3.341   4.362   1.982 -0.2411 -0.0129  0.2353
 1161SOL    HW2 4642   3.418   4.344   1.929  0.1106  0.0403  0.7260
 1161SOL    HW3 4643   3.273   4.305   1.947  1.0956 -3.0286  2.3845
 1161SOL    MW4 4644   3.342   4.352   1.971 -0.0183 -0.4038  0.5836
 1162SOL     OW 4645   3.818   4.649   1.905 -0.0924  0.0291 -0.1222
 1162SOL    HW2 4646   3.810   4.554   1.908 -0.6592  0.0845  0.0241
 1162SOL    HW3 4647   3.737   4.682   1.944 -0.2583  0.5794 -0.9286
 1162SOL    MW4 4648   3.807   4.641   1.911 -0.1891  0.1090 -0.2093
 1163SOL     OW 4649   3.592   0.086   2.018  0.3878  0.2548  0.0400
 1163SOL    HW2 4650   3.585   0.082   2.113 -1.1731  1.7820  0.0255
 1163SOL    HW3 4651   3.514   0.041   1.986  0.7234  0.0507 -0.4996
 1163SOL    MW4 4652   3.581   0.080   2.026  0.2261  0.4294 -0.0331
 1164SOL     OW 4653   3.626   0.331   1.894 -0.3119  0.1357 -0.1116
 1164SOL    HW2 4654   3.615   0.241   1.926  0.1625 -0.0264 -0.4015
 1164SOL    HW3 4655   3.606   0.325   1.801  0.8947  0.0997 -0.3703
 1164SOL    MW4 4656   3.622   0.318   1.886 -0.0901  0.1096 -0.1840
 1165SOL     OW 4657   3.824   0.498   2.026 -0.0416  0.0799  0.0435
 1165SOL    HW2 4658   3.829   0.577   1.972 -0.6109  0.8954  1.1578
 1165SOL    HW3 4659   3.767   0.438   1.978 -0.3142  0.6942 -0.3911
 1165SOL    MW4 4660   3.818   0.500   2.013 -0.1526  0.2686  0.1331
 1166SOL     OW 4661   3.854   0.751   1.895 -0.6879 -0.1573 -0.1606
 1166SOL    HW2 4662   3.774   0.786   1.933 -0.0924  0.8859  0.1551
 1166SOL    HW3 4663   3.839   0.751   1.801 -0.9256  0.3725 -0.1219
 1166SOL    MW4 4664   3.841   0.756   1.888 -0.6407  0.0502 -0.1138
 1167SOL     OW 4665   3.593   0.845   1.958 -0.4337 -0.0581  0.1342
 1167SOL    HW2 4666   3.575   0.938   1.941 -1.0361 -0.4343 -1.2995
 1167SOL    HW3 4667   3.512   0.800   1.935  0.5265 -1.1640 -1.1612
 1167SOL    MW4 4668   3.580   0.852   1.953 -0.3865 -0.2537 -0.2259
 1168SOL     OW 4669   3.585   1.133   1.921 -0.5581 -0.0018 -0.0086
 1168SOL    HW2 4670   3.511   1.179   1.959  0.4606  0.7636  1.1089
 1168SOL    HW3 4671   3.570   1.136   1.826 -0.8516  2.0734  0.0837
 1168SOL    MW4 4672   3.574   1.139   1.913 -0.4624  0.3730  0.1510
 1169SOL     OW 4673   3.826   1.234   2.002 -0.1525 -0.0842 -0.2182
 1169SOL    HW2 4674   3.823   1.249   2.097 -0.8055 -0.4118 -0.1834
 1169SOL    HW3 4675   3.746   1.186   1.983 -0.0029 -0.0538 -0.9350
 1169SOL    MW4 4676   3.815   1.230   2.012 -0.2189 -0.1234 -0.3082
 1170SOL     OW 4677   3.787   1.492   1.908 -0.1907  0.3372 -0.1347
 1170SOL    HW2 4678   3.871   1.523   1.941 -0.4841  0.6981  0.2599
 1170SOL    HW3 4679   3.787   1.398   1.927  0.1541  0.3207 -0.2097
 1170SOL    MW4 4680   3.798   1.484   1.915 -0.1839  0.3826 -0.0925
 1171SOL     OW 4681   3.603   1.665   2.010  0.0125  0.4099  0.2741
 1171SOL    HW2 4682   3.629   1.746   1.966 -1.4857  0.1629 -1.0933
 1171SOL    HW3 4683   3.660   1.598   1.972 -0.2645  0.4558 -0.2360
 1171SOL    MW4 4684   3.614   1.667   1.999 -0.2217  0.3834  0.0264
 1172SOL     OW 4685   3.631   1.926   1.925  0.2031  0.5325 -0.1167
 1172SOL    HW2 4686   3.709   1.976   1.951  1.2220 -1.2190  0.2918
 1172SOL    HW3 4687   3.630   1.931   1.830  0.3717  1.2389 -0.0813
 1172SOL    MW4 4688   3.641   1.933   1.916  0.3598  0.3946 -0.0581
 1173SOL     OW 4689   3.841   2.097   1.979  0.6696  0.3298 -0.0797
 1173SOL    HW2 4690   3.925   2.059   1.954  0.6633  0.7096 -0.6980
 1173SOL    HW3 4691   3.832   2.174   1.923  0.2877  0.7567  0.5581
 1173SOL    MW4 4692   3.851   2.102   1.969  0.6184  0.4362 -0.0771
 1174SOL     OW 4693   3.797   2.351   1.864 -0.4244 -0.3235 -0.0798
 1174SOL    HW2 4694   3.872   2.374   1.919 -0.4772  0.2174 -0.2287
 1174SOL    HW3 4695   3.720   2.376   1.916 -0.5209 -1.3123  0.2692
 1174SOL    MW4 4696   3.797   2.358   1.878 -0.4441 -0.3826 -0.0534
 1175SOL     OW 4697   3.587   2.444   2.014 -0.2536  0.9193 -0.1930
 1175SOL    HW2 4698   3.589   2.529   1.970 -0.8400  1.2669  0.4377
 1175SOL    HW3 4699   3.514   2.397   1.974 -1.5769  1.7049  1.2328
 1175SOL    MW4 4700   3.578   2.449   2.003 -0.5055  1.0688  0.0783
 1176SOL     OW 4701   3.582   2.684   1.898  0.2187  0.4060  0.2329
 1176SOL    HW2 4702   3.658   2.736   1.923 -0.7381  1.8639  0.1758
 1176SOL    HW3 4703   3.507   2.738   1.924 -0.7907 -0.7255 -0.2913
 1176SOL    MW4 4704   3.582   2.698   1.905 -0.0407  0.4491  0.1562
 1177SOL     OW 4705   3.811   2.824   1.972  0.2907  0.4878 -0.0345
 1177SOL    HW2 4706   3.814   2.831   2.068 -1.6109  0.3404  0.0452
 1177SOL    HW3 4707   3.819   2.914   1.941  1.5474  0.4811  0.2190
 1177SOL    MW4 4708   3.813   2.837   1.981  0.2056  0.4675  0.0095
 1178SOL     OW 4709   3.829   3.080   1.887 -0.0799 -0.7969 -0.0725
 1178SOL    HW2 4710   3.751   3.134   1.896  0.7983  0.4358  0.1357
 1178SOL    HW3 4711   3.844   3.074   1.792 -0.3310 -0.8999 -0.1049
 1178SOL    MW4 4712   3.821   3.086   1.876  0.0028 -0.6478 -0.0493
 1179SOL     OW 4713   3.623   3.254   1.980 -0.6675  0.1564  0.4575
 1179SOL    HW2 4714   3.617   3.263   2.075  3.2414  1.0120  0.6724
 1179SOL    HW3 4715   3.620   3.343   1.946  0.1486 -0.0210 -0.0872
 1179SOL    MW4 4716   3.622   3.267   1.988 -0.0441  0.2459  0.4140
 1180SOL     OW 4717   3.602   3.515   1.886  0.4962 -0.0301  0.0801
 1180SOL    HW2 4718   3.673   3.572   1.916 -0.2547  0.9308  0.0682
 1180SOL    HW3 4719   3.595   3.533   1.792 -0.5302  0.7428  0.3007
 1180SOL    MW4 4720   3.610   3.525   1.877  0.2617  0.1987  0.1076
 1181SOL     OW 4721   3.793   3.680   1.999 -0.3900  0.0922 -0.1747
 1181SOL    HW2 4722   3.862   3.619   1.972 -0.1288 -0.2843  1.3035
 1181SOL    HW3 4723   3.799   3.752   1.936  1.6835  0.3161  0.2471
 1181SOL    MW4 4724   3.803   3.681   1.987 -0.0820  0.0720  0.0760
 1182SOL     OW 4725   3.808   3.891   1.830  0.1963  0.3575 -0.4932
 1182SOL    HW2 4726   3.731   3.946   1.846  0.5719  0.6147  0.4670
 1182SOL    HW3 4727   3.815   3.887   1.734 -1.8385 -0.8357 -0.6188
 1182SOL    MW4 4728   3.799   3.898   1.819 -0.0226  0.2340 -0.3830
 1183SOL     OW 4729   3.598   4.038   1.941 -0.7598 -0.3113  0.0571
 1183SOL    HW2 4730   3.594   4.008   2.032 -1.3277 -0.6201 -0.0667
 1183SOL    HW3 4731   3.535   3.983   1.895 -0.0511 -0.5527 -0.6364
 1183SOL    MW4 4732   3.589   4.027   1.947 -0.7412 -0.3839 -0.0508
 1184SOL     OW 4733   3.557   4.285   1.832 -0.1740  0.0745 -0.1006
 1184SOL    HW2 4734   3.630   4.340   1.860 -1.7377  1.4710  1.3505
 1184SOL    HW3 4735   3.568   4.203   1.880 -0.4433  0.8679  1.3357
 1184SOL    MW4 4736   3.568   4.282   1.842 -0.4159  0.3634  0.2803
 1185SOL     OW 4737   3.795   4.377   1.957 -0.2322 -0.1781  0.1408
 1185SOL    HW2 4738   3.801   4.385   2.052  0.6507  1.8220 -0.0597
 1185SOL    HW3 4739   3.879   4.341   1.930 -0.1875 -0.0107  0.0537
 1185SOL    MW4 4740   3.807   4.373   1.966 -0.1098  0.1079  0.1029
 1186SOL     OW 4741   4.245   4.662   1.912 -0.3502 -0.2892 -0.6289
 1186SOL    HW2 4742   4.174   4.711   1.953  0.3996 -0.5119  1.0251
 1186SOL    HW3 4743   4.321   4.682   1.967  0.9311  0.1823 -2.5302
 1186SOL    MW4 4744   4.246   4.671   1.925 -0.0823 -0.2564 -0.6615
 1187SOL     OW 4745   4.022   0.126   2.024 -0.0918 -0.0811 -0.0097
 1187SOL    HW2 4746   4.020   0.126   2.120 -1.4990  0.2648 -0.0272
 1187SOL    HW3 4747   3.941   0.082   1.999 -0.1819  0.6606 -1.0406
 1187SOL    MW4 4748   4.011   0.120   2.034 -0.2894  0.0624 -0.1480
 1188SOL     OW 4749   4.056   0.386   1.909  0.1350  0.2473  0.1711
 1188SOL    HW2 4750   4.064   0.302   1.955 -1.5633 -0.9395 -1.5937
 1188SOL    HW3 4751   3.973   0.421   1.939 -0.1761  0.2678 -0.7081
 1188SOL    MW4 4752   4.046   0.379   1.919 -0.1301  0.0934 -0.1777
 1189SOL     OW 4753   4.272   0.535   1.977  0.0015  0.1148  0.4307
 1189SOL    HW2 4754   4.258   0.531   2.071  0.0800  0.5155  0.4599
 1189SOL    HW3 4755   4.192   0.500   1.939 -0.1813  0.3015  0.6419
 1189SOL    MW4 4756   4.260   0.530   1.984 -0.0123  0.1923  0.4624
 1190SOL     OW 4757   4.267   0.789   1.876  0.0884 -0.3820  0.3047
 1190SOL    HW2 4758   4.272   0.784   1.780 -0.3041 -0.5011  0.2916
 1190SOL    HW3 4759   4.275   0.698   1.905 -0.7458 -0.4441  0.3428
 1190SOL    MW4 4760   4.269   0.776   1.867 -0.0734 -0.4059  0.3080
 1191SOL     OW 4761   4.041   0.902   2.010  0.0776  0.1487  0.6234
 1191SOL    HW2 4762   4.124   0.873   1.971 -0.1134  1.5515 -0.8662
 1191SOL    HW3 4763   3.976   0.842   1.973  0.1435  0.3334  0.2073
 1191SOL    MW4 4764   4.044   0.890   2.000  0.0611  0.3582  0.3720
 1192SOL     OW 4765   4.067   1.149   1.902 -0.2265 -0.1371 -0.1268
 1192SOL    HW2 4766   4.070   1.058   1.932  0.7897 -0.7412 -1.9495
 1192SOL    HW3 4767   3.987   1.184   1.940 -1.3493 -2.1992 -0.5109
 1192SOL    MW4 4768   4.057   1.142   1.911 -0.2406 -0.4889 -0.4180
 1193SOL     OW 4769   4.279   1.335   1.992  0.2250  0.0869  0.2442
 1193SOL    HW2 4770   4.290   1.310   2.084 -0.7683  0.8057  0.5613
 1193SOL    HW3 4771   4.196   1.296   1.966 -0.3026  1.2686  0.1310
 1193SOL    MW4 4772   4.269   1.326   2.000  0.0243  0.3376  0.2711
 1194SOL     OW 4773   4.296   1.593   1.874 -0.3336 -0.1532 -0.3044
 1194SOL    HW2 4774   4.294   1.503   1.908  0.2979 -0.5394 -1.2676
 1194SOL    HW3 4775   4.313   1.583   1.780  4.0399  1.0753  0.2153
 1194SOL    MW4 4776   4.298   1.580   1.866  0.3267 -0.0421 -0.3629
 1195SOL     OW 4777   4.045   1.644   1.973 -0.1856 -0.3916 -0.2672
 1195SOL    HW2 4778   4.055   1.646   2.068  1.0644  0.0562 -0.4026
 1195SOL    HW3 4779   4.134   1.641   1.940 -0.6304 -0.8415 -1.4240
 1195SOL    MW4 4780   4.058   1.644   1.981 -0.0794 -0.3919 -0.4377
 1196SOL     OW 4781   4.048   1.914   1.905 -0.9056 -0.5816 -0.1375
 1196SOL    HW2 4782   4.033   1.820   1.919 -0.8421 -0.6131 -0.2762
 1196SOL    HW3 4783   4.050   1.924   1.810 -0.1432 -0.5637 -0.1256
 1196SOL    MW4 4784   4.046   1.903   1.894 -0.7966 -0.5834 -0.1542
 1197SOL     OW 4785   4.271   2.033   1.994 -0.6983  0.1712 -0.0428
 1197SOL    HW2 4786   4.284   2.029   2.088 -1.6347 -0.9256  0.0517
 1197SOL    HW3 4787   4.186   1.992   1.980 -0.8082  0.8199 -1.3092
 1197SOL    MW4 4788   4.262   2.027   2.004 -0.8363  0.1121 -0.1974
 1198SOL     OW 4789   4.250   2.311   1.912  0.7820  0.1041  0.0254
 1198SOL    HW2 4790   4.264   2.224   1.948 -1.6175 -0.1862  0.3732
 1198SOL    HW3 4791   4.320   2.364   1.949  0.9397 -1.1801  1.6345
 1198SOL    MW4 4792   4.261   2.307   1.922  0.4862 -0.1036  0.2836
 1199SOL     OW 4793   4.027   2.438   2.011 -0.0579 -0.2949 -0.2424
 1199SOL    HW2 4794   4.017   2.421   2.105  1.3797  0.3299  0.0388
 1199SOL    HW3 4795   4.106   2.389   1.987 -1.0749 -1.3847 -1.3764
 1199SOL    MW4 4796   4.036   2.429   2.021 -0.0024 -0.3563 -0.3549
 1200SOL     OW 4797   4.044   2.689   1.899  0.0859  0.7295  0.5579
 1200SOL    HW2 4798   4.040   2.607   1.948 -0.1700 -0.1157 -0.8656
 1200SOL    HW3 4799   3.965   2.737   1.926 -0.6218 -0.2004  0.1446
 1200SOL    MW4 4800   4.033   2.685   1.909 -0.0413  0.4953  0.3156
 1201SOL     OW 4801   4.270   2.848   1.995 -0.0286 -0.2747  0.5138
 1201SOL    HW2 4802   4.265   2.849   2.090 -0.6615 -1.0011  0.4910
 1201SOL    HW3 4803   4.189   2.805   1.967 -1.1372  2.3277 -0.4543
 1201SOL    MW4 4804   4.259   2.843   2.004 -0.2584 -0.0272  0.3830
 1202SOL     OW 4805   4.252   3.149   1.910  0.5267  0.2349  0.5113
 1202SOL    HW2 4806   4.176   3.188   1.953 -1.0471 -0.5111 -1.4789
 1202SOL    HW3 4807   4.252   3.058   1.939  1.1101  0.4109  1.0789
 1202SOL    MW4 4808   4.242   3.142   1.919  0.3960  0.1597  0.3236
 1203SOL     OW 4809   4.015   3.266   1.994  0.1286 -0.1961  0.1998
 1203SOL    HW2 4810   4.024   3.259   2.089  1.9992 -2.2519 -0.0802
 1203SOL    HW3 4811   3.943   3.207   1.973 -0.2631  0.2336  0.3092
 1203SOL    MW4 4812   4.007   3.257   2.004  0.3237 -0.4106  0.1773
 1204SOL     OW 4813   3.994   3.516   1.886 -0.1203  0.1337 -0.0185
 1204SOL    HW2 4814   4.079   3.549   1.916 -0.0751  0.7914 -0.8560
 1204SOL    HW3 4815   3.992   3.425   1.917  0.8442  0.1429  0.0996
 1204SOL    MW4 4816   4.005   3.508   1.894  0.0129  0.2217 -0.1134
 1205SOL     OW 4817   4.235   3.602   1.966  0.0124 -0.7883  0.5451
 1205SOL    HW2 4818   4.237   3.695   1.947 -1.2470 -0.3840  2.3260
 1205SOL    HW3 4819   4.316   3.568   1.927  0.6733  1.0987  0.2311
 1205SOL    MW4 4820   4.246   3.609   1.959 -0.0665 -0.4860  0.7386
 1206SOL     OW 4821   4.250   3.880   1.903 -0.2102  0.3645  0.7982
 1206SOL    HW2 4822   4.324   3.931   1.935  0.7699 -0.7673  0.3790
 1206SOL    HW3 4823   4.260   3.879   1.807  0.0636 -0.9922  0.8216
 1206SOL    MW4 4824   4.261   3.886   1.894 -0.0447  0.0362  0.7460
 1207SOL     OW 4825   4.015   4.035   1.963  0.0702  0.3312 -0.6472
 1207SOL    HW2 4826   4.093   3.985   1.937 -0.1364 -0.3936  0.1433
 1207SOL    HW3 4827   3.942   3.990   1.921  0.0558  0.9683 -1.3268
 1207SOL    MW4 4828   4.016   4.023   1.954  0.0410  0.3196 -0.6326
 1208SOL     OW 4829   4.034   4.285   1.853  0.5181  0.3308  0.0191
 1208SOL    HW2 4830   4.108   4.329   1.895  0.5491 -0.0968  0.4225
 1208SOL    HW3 4831   4.044   4.193   1.878  0.4872  0.0843 -0.8666
 1208SOL    MW4 4832   4.045   4.278   1.862  0.5181  0.2419 -0.0446
 1209SOL     OW 4833   4.254   4.395   1.966  0.4029 -0.0483  0.2235
 1209SOL    HW2 4834   4.234   4.381   2.059  1.2329  0.3188  0.4595
 1209SOL    HW3 4835   4.241   4.488   1.952 -1.0899 -0.3337 -0.3710
 1209SOL    MW4 4836   4.250   4.405   1.976  0.3155 -0.0375  0.1762
 1210SOL     OW 4837   0.217   4.653   2.381 -0.3548 -0.7631  0.2163
 1210SOL    HW2 4838   0.236   4.641   2.474 -0.4283  0.1455  0.3607
 1210SOL    HW3 4839   0.289   4.708   2.349 -0.1267 -1.3872 -0.3528
 1210SOL    MW4 4840   0.229   4.659   2.389 -0.3344 -0.7256  0.1602
 1211SOL     OW 4841   4.475   0.130   2.316  0.0775 -0.6081 -0.3433
 1211SOL    HW2 4842   4.552   0.084   2.349  0.0021 -0.2486  0.3657
 1211SOL    HW3 4843   4.470   0.108   2.223  0.1497 -1.8609 -0.0510
 1211SOL    MW4 4844   4.484   0.121   2.308  0.0771 -0.7259 -0.2112
 1212SOL     OW 4845   4.478   0.409   2.381 -0.0839 -0.0381  0.4066
 1212SOL    HW2 4846   4.552   0.447   2.334 -0.4910  0.2122 -0.0442
 1212SOL    HW3 4847   4.480   0.316   2.360 -0.1893  0.0530 -0.0055
 1212SOL    MW4 4848   4.488   0.402   2.372 -0.1516  0.0070  0.2928
 1213SOL     OW 4849   0.234   0.510   2.269  0.2346  0.4946  0.5673
 1213SOL    HW2 4850   0.314   0.463   2.290 -1.3651 -1.9288  1.4557
 1213SOL    HW3 4851   0.223   0.499   2.175 -0.7438 -2.0492  0.9280
 1213SOL    MW4 4852   0.243   0.502   2.259 -0.1055 -0.1608  0.7321
 1214SOL     OW 4853   0.173   0.776   2.353  0.5138  0.4654 -0.1761
 1214SOL    HW2 4854   0.142   0.774   2.443  2.4724 -1.5171  0.5017
 1214SOL    HW3 4855   0.186   0.684   2.330  1.2823  1.0049 -2.0318
 1214SOL    MW4 4856   0.171   0.764   2.362  0.8736  0.2750 -0.3315
 1215SOL     OW 4857   4.447   0.920   2.260  0.3902  0.1243  0.1224
 1215SOL    HW2 4858   4.531   0.883   2.287 -0.4388 -2.1988 -0.4148
 1215SOL    HW3 4859   4.452   0.925   2.165  0.0669  0.3568  0.1170
 1215SOL    MW4 4860   4.458   0.916   2.251  0.2382 -0.1515  0.0508
 1216SOL     OW 4861   4.483   1.164   2.375  0.0926 -0.1333  0.0531
 1216SOL    HW2 4862   4.489   1.137   2.467 -2.8742  1.0773  0.6837
 1216SOL    HW3 4863   4.467   1.084   2.327  2.6484 -0.9143  0.4424
 1216SOL    MW4 4864   4.482   1.150   2.381  0.0384 -0.0767  0.1877
 1217SOL     OW 4865   0.224   1.248   2.263  0.3794  0.1567  0.2931
 1217SOL    HW2 4866   0.143   1.202   2.288  1.1879 -1.0575  0.7136
 1217SOL    HW3 4867   0.212   1.267   2.170 -0.3270 -0.1604  0.3109
 1217SOL    MW4 4868   0.212   1.244   2.254  0.3929 -0.0453  0.3509
 1218SOL     OW 4869   0.225   1.511   2.320 -0.2626 -0.2838 -0.0880
 1218SOL    HW2 4870   0.230   1.527   2.415 -1.1022  0.8167 -0.2179
 1218SOL    HW3 4871   0.221   1.416   2.312 -2.0013 -0.3332  1.0811
 1218SOL    MW4 4872   0.225   1.500   2.332 -0.6028 -0.1451  0.0491
 1219SOL     OW 4873   0.004   1.641   2.227  0.2019  0.8529 -0.3244
 1219SOL    HW2 4874   0.021   1.724   2.271 -0.4808  0.5787  0.4535
 1219SOL    HW3 4875   0.071   1.581   2.261 -0.2024  0.6948  0.1995
 1219SOL    MW4 4876   0.015   1.644   2.237  0.0584  0.7959 -0.1527
 1220SOL     OW 4877   0.006   1.903   2.337 -0.2417 -0.2652  0.3516
 1220SOL    HW2 4878  -0.068   1.962   2.324 -0.2073 -0.0258  1.1907
 1220SOL    HW3 4879   0.076   1.938   2.282 -0.3150  0.2997  0.6208
 1220SOL    MW4 4880   0.006   1.915   2.328 -0.2468 -0.1591  0.4979
 1221SOL     OW 4881   0.207   2.046   2.226  0.1383 -0.1972  0.0911
 1221SOL    HW2 4882   0.291   2.002   2.241  0.2067 -0.3311 -0.6344
 1221SOL    HW3 4883   0.204   2.058   2.131 -1.2437 -1.3623 -0.0218
 1221SOL    MW4 4884   0.218   2.042   2.215 -0.0350 -0.3686 -0.0195
 1222SOL     OW 4885   0.236   2.293   2.339  0.3267  0.3626  0.6086
 1222SOL    HW2 4886   0.225   2.285   2.433  2.1259  0.2459  0.8269
 1222SOL    HW3 4887   0.225   2.204   2.306 -0.7513  0.4743  0.6446
 1222SOL    MW4 4888   0.233   2.280   2.347  0.4218  0.3620  0.6422
 1223SOL     OW 4889   0.003   2.416   2.264  0.1943  0.2263 -0.1758
 1223SOL    HW2 4890   0.000   2.502   2.306 -0.9558 -1.6966  3.8982
 1223SOL    HW3 4891   0.083   2.376   2.296  0.0014 -0.7752 -0.9238
 1223SOL    MW4 4892   0.013   2.422   2.274  0.0171 -0.1596  0.2630
 1224SOL     OW 4893   4.473   2.678   2.337  0.4004  0.4481  0.0415
 1224SOL    HW2 4894   4.478   2.695   2.431  0.7027  2.3261 -0.2985
 1224SOL    HW3 4895   4.553   2.716   2.301 -0.1935  0.6459 -1.1006
 1224SOL    MW4 4896   4.484   2.686   2.344  0.3619  0.7220 -0.1541
 1225SOL     OW 4897   0.224   2.800   2.259  1.0201  0.6433  0.0015
 1225SOL    HW2 4898   0.296   2.755   2.302  0.9054  0.4526 -0.0037
 1225SOL    HW3 4899   0.246   2.798   2.166  0.1088 -1.0777 -0.2054
 1225SOL    MW4 4900   0.236   2.794   2.252  0.8847  0.3911 -0.0265
 1226SOL     OW 4901   0.217   3.069   2.361  0.2659 -0.1543 -0.8283
 1226SOL    HW2 4902   0.140   3.111   2.322  0.3237 -0.1991 -0.9921
 1226SOL    HW3 4903   0.215   2.980   2.326 -0.7287 -0.7665  0.7389
 1226SOL    MW4 4904   0.206   3.063   2.351  0.1423 -0.2410 -0.6432
 1227SOL     OW 4905   4.491   3.212   2.245 -0.4306 -0.3072 -0.1745
 1227SOL    HW2 4906   4.503   3.299   2.282 -0.8660  0.0660 -0.8932
 1227SOL    HW3 4907   4.503   3.224   2.151 -0.5669 -1.0085 -0.2839
 1227SOL    MW4 4908   4.494   3.225   2.238 -0.5060 -0.3505 -0.2838
 1228SOL     OW 4909   0.028   3.474   2.357 -0.0109 -0.9050  0.1211
 1228SOL    HW2 4910   0.021   3.468   2.452  0.7867  0.5224  0.2887
 1228SOL    HW3 4911  -0.051   3.522   2.331  0.5231  0.0530  0.2347
 1228SOL    MW4 4912   0.017   3.479   2.366  0.1648 -0.5903  0.1582
 1229SOL     OW 4913   0.244   3.628   2.240 -0.0959  0.5966 -0.3667
 1229SOL    HW2 4914   0.325   3.591   2.275 -0.0269  0.3975 -0.7355
 1229SOL    HW3 4915   0.176   3.566   2.266  0.0314  0.1625 -1.0600
 1229SOL    MW4 4916   0.246   3.615   2.248 -0.0700  0.5131 -0.5068
 1230SOL     OW 4917   0.238   3.882   2.344 -0.2893 -0.1462 -0.3841
 1230SOL    HW2 4918   0.153   3.916   2.314 -0.8846 -1.3844 -0.1139
 1230SOL    HW3 4919   0.239   3.791   2.316  1.4392  0.1448 -1.3650
 1230SOL    MW4 4920   0.227   3.875   2.337 -0.1398 -0.2712 -0.4778
 1231SOL     OW 4921   4.470   4.014   2.279  0.0382 -0.0638 -0.0290
 1231SOL    HW2 4922   4.475   4.106   2.303  0.7796 -0.1241  0.0546
 1231SOL    HW3 4923   4.473   4.013   2.184 -0.9060  0.0507 -0.0694
 1231SOL    MW4 4924   4.471   4.026   2.270  0.0114 -0.0567 -0.0233
 1232SOL     OW 4925   4.468   4.289   2.350 -0.2439  0.7399  0.1440
 1232SOL    HW2 4926   4.456   4.287   2.445  1.1232 -2.0339  0.3071
 1232SOL    HW3 4927   4.556   4.324   2.338 -0.2145  0.5956 -0.0658
 1232SOL    MW4 4928   4.478   4.293   2.361 -0.0597  0.3549  0.1379
 1233SOL     OW 4929   0.228   4.383   2.280 -0.4407 -0.5701 -0.2152
 1233SOL    HW2 4930   0.306   4.349   2.324 -0.8252 -1.0126  0.1219
 1233SOL    HW3 4931   0.221   4.474   2.310 -0.6072 -0.8213  0.5134
 1233SOL    MW4 4932   0.237   4.391   2.290 -0.5134 -0.6616 -0.0746
 1234SOL     OW 4933   0.688   0.001   2.384 -0.1481  0.4625 -0.0940
 1234SOL    HW2 4934   0.697   0.009   2.479 -1.5526  1.1125  0.0092
 1234SOL    HW3 4935   0.759   0.053   2.348  1.0635 -0.6885  0.5916
 1234SOL    MW4 4936   0.698   0.008   2.392 -0.1735  0.3964  0.0101
 1235SOL     OW 4937   0.436   0.116   2.283  0.4792  0.2867  0.0674
 1235SOL    HW2 4938   0.513   0.068   2.314 -0.1119 -0.8274 -0.1735
 1235SOL    HW3 4939   0.437   0.105   2.188  1.0129  1.7872 -0.1218
 1235SOL    MW4 4940   0.446   0.108   2.275  0.4716  0.3377  0.0107
 1236SOL     OW 4941   0.461   0.380   2.345  0.1486  0.4847 -0.1000
 1236SOL    HW2 4942   0.453   0.382   2.441  2.2747  0.8744  0.1070
 1236SOL    HW3 4943   0.447   0.288   2.322 -0.0365  0.3223  0.6401
 1236SOL    MW4 4944   0.458   0.368   2.355  0.4047  0.5147  0.0249
 1237SOL     OW 4945   0.674   0.514   2.222 -0.2493 -0.1014 -0.3340
 1237SOL    HW2 4946   0.648   0.600   2.256 -0.9678 -0.3086 -0.3625
 1237SOL    HW3 4947   0.617   0.452   2.267  1.0195 -0.6775  0.5332
 1237SOL    MW4 4948   0.663   0.517   2.233 -0.1767 -0.2048 -0.2233
 1238SOL     OW 4949   0.644   0.763   2.334 -0.4529  0.4947 -0.3500
 1238SOL    HW2 4950   0.656   0.735   2.425 -1.6219  3.0890  0.6487
 1238SOL    HW3 4951   0.560   0.809   2.333  0.1354  1.6295 -2.4533
 1238SOL    MW4 4952   0.635   0.766   2.346 -0.5295  0.9867 -0.4958
 1239SOL     OW 4953   0.416   0.894   2.291 -0.6434 -0.3127  0.0357
 1239SOL    HW2 4954   0.341   0.837   2.308  0.6338 -2.4505 -1.2359
 1239SOL    HW3 4955   0.419   0.902   2.196  0.5281  0.0428  0.0983
 1239SOL    MW4 4956   0.406   0.888   2.281 -0.3203 -0.5479 -0.1238
 1240SOL     OW 4957   0.466   1.151   2.388  0.1085  0.1726  0.1436
 1240SOL    HW2 4958   0.465   1.058   2.364 -0.3439  0.1123  0.3943
 1240SOL    HW3 4959   0.390   1.189   2.344  0.4155  0.4677 -0.1315
 1240SOL    MW4 4960   0.456   1.144   2.379  0.0893  0.2036  0.1404
 1241SOL     OW 4961   0.684   1.256   2.271  0.2020 -0.3180  0.3662
 1241SOL    HW2 4962   0.685   1.346   2.303  0.6678 -0.5684  1.0511
 1241SOL    HW3 4963   0.610   1.216   2.316 -1.0187  0.1526 -1.1515
 1241SOL    MW4 4964   0.674   1.263   2.281  0.1024 -0.2890  0.2563
 1242SOL     OW 4965   0.663   1.512   2.372 -0.2233 -0.0992  0.8604
 1242SOL    HW2 4966   0.658   1.523   2.467  0.5762 -0.9358  1.0049
 1242SOL    HW3 4967   0.748   1.548   2.348  1.2366 -3.2332  0.9796
 1242SOL    MW4 4968   0.674   1.518   2.381  0.0748 -0.6231  0.8952
 1243SOL     OW 4969   0.452   1.649   2.243 -0.2602 -0.0283  0.2908
 1243SOL    HW2 4970   0.513   1.590   2.288  0.2304  0.6937  0.5826
 1243SOL    HW3 4971   0.365   1.614   2.264  0.0750 -1.7388 -1.0624
 1243SOL    MW4 4972   0.449   1.637   2.252 -0.1513 -0.1587  0.1507
 1244SOL     OW 4973   0.431   1.923   2.315 -0.0699 -0.0820 -0.3900
 1244SOL    HW2 4974   0.515   1.960   2.288 -0.4765  0.2765 -1.1791
 1244SOL    HW3 4975   0.437   1.830   2.293  0.2337 -0.1163 -0.1643
 1244SOL    MW4 4976   0.443   1.915   2.309 -0.0835 -0.0392 -0.4643
 1245SOL     OW 4977   0.673   2.028   2.284  0.4323  0.1871  0.5942
 1245SOL    HW2 4978   0.755   1.979   2.298  1.3954  1.4223 -0.5584
 1245SOL    HW3 4979   0.689   2.113   2.325 -0.0026  0.6815 -0.2508
 1245SOL    MW4 4980   0.686   2.033   2.291  0.5020  0.4153  0.3307
 1246SOL     OW 4981   0.712   2.293   2.366 -0.2711  0.5995  0.4079
 1246SOL    HW2 4982   0.727   2.309   2.459 -1.0127 -1.0768  0.8252
 1246SOL    HW3 4983   0.772   2.354   2.321  1.7116 -0.1316  1.9899
 1246SOL    MW4 4984   0.722   2.303   2.372 -0.1074  0.2819  0.6717
 1247SOL     OW 4985   0.462   2.400   2.245 -0.2992 -0.0581  0.0291
 1247SOL    HW2 4986   0.536   2.356   2.286  1.3065  0.3006 -2.3475
 1247SOL    HW3 4987   0.384   2.361   2.285  1.1538 -0.9274  2.0745
 1247SOL    MW4 4988   0.461   2.389   2.255  0.1044 -0.1255 -0.0146
 1248SOL     OW 4989   0.431   2.655   2.354 -0.0074  0.0681 -0.0139
 1248SOL    HW2 4990   0.433   2.652   2.450 -1.2706 -1.4382 -0.0359
 1248SOL    HW3 4991   0.439   2.564   2.327 -1.0238  0.3653 -1.3227
 1248SOL    MW4 4992   0.432   2.643   2.363 -0.3081 -0.0915 -0.1895
 1249SOL     OW 4993   0.673   2.829   2.253  0.1436  0.0447 -0.0830
 1249SOL    HW2 4994   0.753   2.805   2.301 -0.2053  1.3149  1.1230
 1249SOL    HW3 4995   0.602   2.796   2.307 -0.2558  1.6911  0.4134
 1249SOL    MW4 4996   0.674   2.821   2.266  0.0449  0.4295  0.1416
 1250SOL     OW 4997   0.633   3.077   2.374  0.1396 -0.4276 -0.1729
 1250SOL    HW2 4998   0.571   3.144   2.345  1.1347 -0.3388 -2.1819
 1250SOL    HW3 4999   0.626   3.008   2.308 -0.0686 -1.8016  1.2770
 1250SOL    MW4 5000   0.624   3.077   2.361  0.2434 -0.5971 -0.2467
 1251SOL     OW 5001   0.408   3.239   2.268 -0.0944 -0.1295 -0.0253
 1251SOL    HW2 5002   0.350   3.174   2.307  0.1125 -0.0616  0.4064
 1251SOL    HW3 5003   0.407   3.220   2.175 -2.7120  1.4079 -0.3489
 1251SOL    MW4 5004   0.400   3.228   2.261 -0.4125  0.0823 -0.0110
 1252SOL     OW 5005   0.458   3.499   2.373  0.3058  0.8840  0.0013
 1252SOL    HW2 5006   0.543   3.532   2.344  1.0503 -0.2688  0.8357
 1252SOL    HW3 5007   0.451   3.413   2.333 -0.4877  0.9733 -0.0628
 1252SOL    MW4 5008   0.468   3.492   2.364  0.2993  0.7437  0.1029
 1253SOL     OW 5009   0.691   3.601   2.268 -0.6811 -0.1105 -0.0143
 1253SOL    HW2 5010   0.706   3.688   2.306  0.7758  0.2705 -1.3711
 1253SOL    HW3 5011   0.701   3.615   2.173 -0.7283 -1.6991 -0.2651
 1253SOL    MW4 5012   0.695   3.614   2.260 -0.4951 -0.2698 -0.2264
 1254SOL     OW 5013   0.699   3.845   2.388 -0.0873  0.0844 -0.5340
 1254SOL    HW2 5014   0.694   3.860   2.483  0.2919  0.1433 -0.5228
 1254SOL    HW3 5015   0.644   3.913   2.350 -1.4241 -0.8449 -0.2773
 1254SOL    MW4 5016   0.691   3.856   2.396 -0.2136 -0.0304 -0.4986
 1255SOL     OW 5017   0.466   4.006   2.286 -0.0850  0.7182  0.1755
 1255SOL    HW2 5018   0.387   3.956   2.304 -0.2500  0.3946 -1.4415
 1255SOL    HW3 5019   0.461   4.028   2.193  1.5723  0.9487  0.1205
 1255SOL    MW4 5020   0.455   4.003   2.276  0.1119  0.7059 -0.0451
 1256SOL     OW 5021   0.470   4.278   2.375  0.1248  0.0801  0.1336
 1256SOL    HW2 5022   0.542   4.323   2.331  0.0999 -1.0648 -1.1009
 1256SOL    HW3 5023   0.485   4.185   2.357 -2.1587 -0.1181 -0.9515
 1256SOL    MW4 5024   0.481   4.272   2.367 -0.1798 -0.0971 -0.1725
 1257SOL     OW 5025   0.727   4.407   2.277 -0.3445 -0.4985 -0.1519
 1257SOL    HW2 5026   0.713   4.496   2.311 -3.5400 -0.7715 -0.5604
 1257SOL    HW3 5027   0.735   4.419   2.182  0.8448 -0.5018 -0.0567
 1257SOL    MW4 5028   0.726   4.421   2.269 -0.6092 -0.5350 -0.1932
 1258SOL     OW 5029   1.115   4.661   2.362  0.1218 -0.3281 -0.0181
 1258SOL    HW2 5030   1.085   4.643   2.451  0.0710  0.8460  0.2071
 1258SOL    HW3 5031   1.047   4.715   2.324  0.9453  0.5990 -0.1989
 1258SOL    MW4 5032   1.102   4.666   2.369  0.2237 -0.0508 -0.0122
 1259SOL     OW 5033   0.909   0.164   2.273  0.4320 -0.4078 -0.2016
 1259SOL    HW2 5034   0.913   0.255   2.302 -1.4590 -0.2735 -0.2691
 1259SOL    HW3 5035   0.898   0.168   2.178  0.7160 -0.7229 -0.2524
 1259SOL    MW4 5036   0.908   0.176   2.265  0.2200 -0.4317 -0.2172
 1260SOL     OW 5037   0.900   0.430   2.380  0.1141  0.0004 -0.3244
 1260SOL    HW2 5038   0.982   0.435   2.330  0.5028 -0.6029  0.2480
 1260SOL    HW3 5039   0.832   0.452   2.316  0.7230  0.5100 -0.8021
 1260SOL    MW4 5040   0.902   0.433   2.365  0.2457 -0.0120 -0.3119
 1261SOL     OW 5041   1.123   0.492   2.230  0.1605 -0.0606 -0.5822
 1261SOL    HW2 5042   1.199   0.446   2.267 -0.3769  0.3002  1.0285
 1261SOL    HW3 5043   1.124   0.469   2.137  1.6881 -0.8297 -0.3962
 1261SOL    MW4 5044   1.133   0.483   2.223  0.2911 -0.1145 -0.3452
 1262SOL     OW 5045   1.169   0.758   2.323 -0.1743  0.3515  0.4914
 1262SOL    HW2 5046   1.081   0.792   2.305  0.3100  1.7240  0.6571
 1262SOL    HW3 5047   1.165   0.666   2.296 -1.2341  0.7826 -0.9208
 1262SOL    MW4 5048   1.157   0.750   2.317 -0.2503  0.5895  0.3270
 1263SOL     OW 5049   0.906   0.848   2.287 -0.3892  0.2409 -0.4535
 1263SOL    HW2 5050   0.905   0.941   2.309  0.0676  0.5439 -1.7142
 1263SOL    HW3 5051   0.822   0.815   2.320 -0.1705  0.9030  0.8003
 1263SOL    MW4 5052   0.894   0.856   2.294 -0.3001  0.3682 -0.4544
 1264SOL     OW 5053   0.910   1.102   2.357 -0.2955  0.3968 -0.0807
 1264SOL    HW2 5054   0.991   1.146   2.334  0.5611 -1.6128 -1.0119
 1264SOL    HW3 5055   0.841   1.158   2.321  0.5997  2.5053  1.3886
 1264SOL    MW4 5056   0.911   1.115   2.349 -0.0643  0.4099 -0.0097
 1265SOL     OW 5057   1.156   1.262   2.256 -0.7974  0.4926 -0.1167
 1265SOL    HW2 5058   1.236   1.216   2.280 -1.9468 -0.8529  1.2065
 1265SOL    HW3 5059   1.154   1.258   2.160  0.5535  0.2985 -0.1520
 1265SOL    MW4 5060   1.166   1.256   2.246 -0.7708  0.2895  0.0532
 1266SOL     OW 5061   1.120   1.502   2.372  0.1380 -0.1135 -0.1701
 1266SOL    HW2 5062   1.043   1.546   2.336  0.5800  1.1042  0.3380
 1266SOL    HW3 5063   1.122   1.417   2.327 -3.0009 -1.2787  1.7338
 1266SOL    MW4 5064   1.110   1.497   2.361 -0.2178 -0.1066  0.1481
 1267SOL     OW 5065   0.889   1.634   2.271  0.0264  0.0593 -0.9502
 1267SOL    HW2 5066   0.892   1.729   2.288 -1.1161  0.0541 -0.6568
 1267SOL    HW3 5067   0.901   1.626   2.177  1.3973  0.4160 -0.8148
 1267SOL    MW4 5068   0.891   1.646   2.261  0.0566  0.1057 -0.8936
 1268SOL     OW 5069   0.911   1.896   2.351 -0.2550 -0.2878 -0.5536
 1268SOL    HW2 5070   0.926   1.894   2.446 -1.0160 -1.4009 -0.4506
 1268SOL    HW3 5071   0.974   1.960   2.318  0.0691  0.0445  0.6978
 1268SOL    MW4 5072   0.921   1.904   2.359 -0.3126 -0.3908 -0.3749
 1269SOL     OW 5073   1.119   2.097   2.247  0.1096 -0.5793 -0.3965
 1269SOL    HW2 5074   1.188   2.040   2.280 -0.2493 -1.2354 -0.7457
 1269SOL    HW3 5075   1.128   2.091   2.151  0.2542  0.1784 -0.4263
 1269SOL    MW4 5076   1.129   2.088   2.238  0.0814 -0.5659 -0.4465
 1270SOL     OW 5077   1.122   2.361   2.320  0.3934 -0.2301 -0.2659
 1270SOL    HW2 5078   1.205   2.404   2.300  0.6165 -0.3247  0.4348
 1270SOL    HW3 5079   1.134   2.270   2.291  0.8348 -0.4513  0.5949
 1270SOL    MW4 5080   1.134   2.354   2.313  0.4811 -0.2718 -0.0599
 1271SOL     OW 5081   0.874   2.479   2.255  0.3240  0.3994 -0.5278
 1271SOL    HW2 5082   0.964   2.459   2.278  0.1081  0.5438  0.4410
 1271SOL    HW3 5083   0.875   2.485   2.159  0.8280 -2.1492 -0.7255
 1271SOL    MW4 5084   0.886   2.477   2.245  0.3620  0.0822 -0.4261
 1272SOL     OW 5085   0.912   2.722   2.377  0.8228 -0.1577  0.3172
 1272SOL    HW2 5086   0.911   2.699   2.470 -1.3098 -0.5469  0.2216
 1272SOL    HW3 5087   0.888   2.641   2.332  1.7976  0.0386 -0.5783
 1272SOL    MW4 5088   0.909   2.708   2.383  0.6700 -0.1832  0.1864
 1273SOL     OW 5089   1.115   2.842   2.248 -0.3181 -0.0426  0.4611
 1273SOL    HW2 5090   1.198   2.802   2.274  0.3284 -0.4379 -2.0171
 1273SOL    HW3 5091   1.048   2.794   2.296  0.8992  0.4605  2.6988
 1273SOL    MW4 5092   1.117   2.830   2.258 -0.0722 -0.0284  0.4293
 1274SOL     OW 5093   1.112   3.100   2.367  0.1804  0.5847  0.0240
 1274SOL    HW2 5094   1.030   3.139   2.336 -0.2586  0.9136  1.5224
 1274SOL    HW3 5095   1.115   3.014   2.324 -1.0216  0.5148  0.0442
 1274SOL    MW4 5096   1.102   3.094   2.357 -0.0361  0.6189  0.2243
 1275SOL     OW 5097   0.890   3.204   2.262  0.2278  0.2155 -0.7176
 1275SOL    HW2 5098   0.897   3.294   2.291  2.7450 -0.3912  0.7674
 1275SOL    HW3 5099   0.816   3.167   2.310  0.1401  1.0751 -0.1977
 1275SOL    MW4 5100   0.881   3.211   2.272  0.5483  0.2489 -0.4530
 1276SOL     OW 5101   0.922   3.477   2.360  0.1605 -0.3635 -0.4978
 1276SOL    HW2 5102   0.919   3.485   2.455 -0.2652 -0.4931 -0.4970
 1276SOL    HW3 5103   0.843   3.524   2.330 -0.0299 -0.8448 -0.7483
 1276SOL    MW4 5104   0.911   3.484   2.368  0.0792 -0.4441 -0.5308
 1277SOL     OW 5105   1.150   3.632   2.260 -0.0862 -0.8170  0.9879
 1277SOL    HW2 5106   1.215   3.579   2.306 -0.4267 -1.9138  0.2137
 1277SOL    HW3 5107   1.066   3.595   2.286 -0.3658 -0.0650  1.1708
 1277SOL    MW4 5108   1.148   3.620   2.270 -0.1681 -0.8625  0.9099
 1278SOL     OW 5109   1.145   3.895   2.350  0.0144  0.0365  0.0401
 1278SOL    HW2 5110   1.218   3.953   2.332  0.5002 -0.5504  0.1111
 1278SOL    HW3 5111   1.170   3.812   2.310 -1.2678  0.2465 -1.2456
 1278SOL    MW4 5112   1.158   3.892   2.343 -0.0907 -0.0132 -0.1202
 1279SOL     OW 5113   0.903   3.983   2.269  0.3014  0.3911  0.0440
 1279SOL    HW2 5114   0.982   3.956   2.315  0.0051  1.3216  1.1280
 1279SOL    HW3 5115   0.833   3.928   2.305  0.3901 -0.2216 -0.6972
 1279SOL    MW4 5116   0.904   3.972   2.279  0.2740  0.4331  0.0893
 1280SOL     OW 5117   0.935   4.248   2.363 -0.4554 -0.1800  0.1539
 1280SOL    HW2 5118   0.909   4.164   2.324 -0.6585  0.2934 -0.7661
 1280SOL    HW3 5119   0.863   4.307   2.340  0.7335  0.7924 -1.1480
 1280SOL    MW4 5120   0.922   4.245   2.355 -0.3254  0.0108 -0.1393
 1281SOL     OW 5121   1.122   4.414   2.232 -0.1113  0.4381  0.0464
 1281SOL    HW2 5122   1.065   4.359   2.286 -0.3857 -0.6261 -1.2793
 1281SOL    HW3 5123   1.118   4.501   2.272 -2.0786  0.1954  0.4295
 1281SOL    MW4 5124   1.114   4.418   2.244 -0.4071  0.2657 -0.0780
 1282SOL     OW 5125   1.572   0.023   2.355  0.0961 -0.3846 -0.0027
 1282SOL    HW2 5126   1.647   0.052   2.303 -0.4468  0.3097 -0.4048
 1282SOL    HW3 5127   1.496   0.037   2.298 -0.4818  0.1639  0.8784
 1282SOL    MW4 5128   1.572   0.029   2.340 -0.0518 -0.2206  0.0605
 1283SOL     OW 5129   1.345   0.073   2.201 -0.2870  0.4263 -0.8210
 1283SOL    HW2 5130   1.361   0.157   2.243  1.1610  0.0666 -0.6256
 1283SOL    HW3 5131   1.261   0.043   2.237 -0.3076  1.3092 -0.1341
 1283SOL    MW4 5132   1.336   0.080   2.211 -0.0987  0.4953 -0.7046
 1284SOL     OW 5133   1.335   0.323   2.317 -0.3707 -0.3233 -0.1837
 1284SOL    HW2 5134   1.352   0.319   2.411  0.8769 -0.3704 -0.4093
 1284SOL    HW3 5135   1.408   0.373   2.281 -1.5311  0.8453 -0.9657
 1284SOL    MW4 5136   1.347   0.329   2.325 -0.3592 -0.1753 -0.3166
 1285SOL     OW 5137   1.572   0.478   2.247 -0.1013 -0.1147 -0.0812
 1285SOL    HW2 5138   1.650   0.425   2.264 -0.0520 -0.2641 -0.7533
 1285SOL    HW3 5139   1.567   0.483   2.152 -1.1835 -0.5245 -0.0530
 1285SOL    MW4 5140   1.581   0.471   2.237 -0.2376 -0.1885 -0.1662
 1286SOL     OW 5141   1.618   0.767   2.333  0.0885 -0.4230  0.5189
 1286SOL    HW2 5142   1.696   0.822   2.327 -0.8398  1.0188  1.3761
 1286SOL    HW3 5143   1.643   0.685   2.289  1.6542  0.4772 -0.3250
 1286SOL    MW4 5144   1.631   0.764   2.326  0.1726 -0.1140  0.5206
 1287SOL     OW 5145   1.394   0.885   2.190  0.4834  0.2651 -0.1636
 1287SOL    HW2 5146   1.478   0.845   2.213  0.1726 -0.1181  0.3236
 1287SOL    HW3 5147   1.328   0.828   2.230 -0.0418  0.0914 -1.2444
 1287SOL    MW4 5148   1.396   0.872   2.198  0.3731  0.1916 -0.2419
 1288SOL     OW 5149   1.379   1.134   2.311 -0.1960 -0.3358 -0.0481
 1288SOL    HW2 5150   1.400   1.104   2.399  2.1334 -1.0870 -0.8273
 1288SOL    HW3 5151   1.382   1.055   2.257 -2.1339  0.0208 -0.7288
 1288SOL    MW4 5152   1.382   1.120   2.315 -0.1444 -0.3878 -0.2407
 1289SOL     OW 5153   1.624   1.260   2.253 -0.1461 -0.1294 -0.2438
 1289SOL    HW2 5154   1.539   1.221   2.275 -1.0059  1.7433 -0.1295
 1289SOL    HW3 5155   1.618   1.279   2.160  0.1181  0.0980 -0.2135
 1289SOL    MW4 5156   1.612   1.257   2.244 -0.2247  0.1477 -0.2247
 1290SOL     OW 5157   1.559   1.527   2.371 -0.0891 -0.1041 -0.1261
 1290SOL    HW2 5158   1.625   1.580   2.327  0.9266 -0.0289  1.4420
 1290SOL    HW3 5159   1.562   1.443   2.325  1.3112 -0.1958  0.0911
 1290SOL    MW4 5160   1.568   1.523   2.359  0.2297 -0.1063  0.1094
 1291SOL     OW 5161   1.319   1.658   2.292  0.7308 -0.0898 -0.2111
 1291SOL    HW2 5162   1.390   1.613   2.339  0.3660  0.8436  1.2680
 1291SOL    HW3 5163   1.245   1.598   2.299  1.0677 -0.5901 -0.8386
 1291SOL    MW4 5164   1.319   1.644   2.300  0.7272 -0.0327 -0.0987
 1292SOL     OW 5165   1.309   1.920   2.369  0.0867 -0.2778 -0.3315
 1292SOL    HW2 5166   1.392   1.959   2.341 -1.2503  2.0442 -1.2478
 1292SOL    HW3 5167   1.307   1.834   2.327  2.1680 -0.4896 -0.0292
 1292SOL    MW4 5168   1.320   1.914   2.360  0.1849  0.0006 -0.4125
 1293SOL     OW 5169   1.556   2.034   2.269  0.4082 -0.1674  0.3456
 1293SOL    HW2 5170   1.641   2.002   2.299  0.1375  0.3472  1.7358
 1293SOL    HW3 5171   1.572   2.067   2.181  1.7849  0.4361  0.8077
 1293SOL    MW4 5172   1.569   2.034   2.262  0.5542 -0.0199  0.5900
 1294SOL     OW 5173   1.595   2.318   2.367 -0.1612 -0.4362 -0.0944
 1294SOL    HW2 5174   1.601   2.320   2.462 -1.5912 -0.5554  0.0110
 1294SOL    HW3 5175   1.577   2.227   2.345 -0.6323 -0.2724 -0.4149
 1294SOL    MW4 5176   1.594   2.306   2.376 -0.4120 -0.4303 -0.1228
 1295SOL     OW 5177   1.383   2.494   2.276  0.1582  0.5487  0.2610
 1295SOL    HW2 5178   1.435   2.420   2.311 -1.7233 -0.6240  0.6373
 1295SOL    HW3 5179   1.394   2.488   2.181 -0.2161 -0.3884  0.2745
 1295SOL    MW4 5180   1.392   2.483   2.268 -0.1394  0.2703  0.3124
 1296SOL     OW 5181   1.347   2.756   2.351 -0.6849  0.0423  0.1914
 1296SOL    HW2 5182   1.431   2.795   2.329 -0.7086  0.3793  0.6925
 1296SOL    HW3 5183   1.354   2.666   2.320  0.2851 -0.2581  1.2588
 1296SOL    MW4 5184   1.359   2.749   2.344 -0.5600  0.0471  0.3984
 1297SOL     OW 5185   1.593   2.864   2.250  0.1194 -0.1497 -0.0322
 1297SOL    HW2 5186   1.566   2.952   2.277  1.0776  0.1297  0.0352
 1297SOL    HW3 5187   1.587   2.866   2.154 -1.2342 -0.4696  0.0371
 1297SOL    MW4 5188   1.588   2.876   2.241  0.0672 -0.1550 -0.0141
 1298SOL     OW 5189   1.550   3.129   2.339  0.1669  0.5029  0.2412
 1298SOL    HW2 5190   1.562   3.116   2.433 -0.5947 -0.7920  0.1809
 1298SOL    HW3 5191   1.463   3.168   2.332  0.3976  0.9902  0.0993
 1298SOL    MW4 5192   1.540   3.132   2.351  0.0968  0.3963  0.2145
 1299SOL     OW 5193   1.302   3.266   2.279 -0.1162 -0.1336  0.0321
 1299SOL    HW2 5194   1.235   3.206   2.310  0.5138 -0.4300  0.8395
 1299SOL    HW3 5195   1.313   3.244   2.187 -0.7342 -0.4567  0.0342
 1299SOL    MW4 5196   1.295   3.255   2.271 -0.1146 -0.2153  0.1389
 1300SOL     OW 5197   1.352   3.496   2.390  0.6676  0.2103  0.0478
 1300SOL    HW2 5198   1.346   3.475   2.483 -1.7546  0.0958 -0.1052
 1300SOL    HW3 5199   1.344   3.411   2.346  2.1313  0.2248 -0.2731
 1300SOL    MW4 5200   1.350   3.482   2.397  0.5412  0.1971 -0.0147
 1301SOL     OW 5201   1.543   3.631   2.226  0.2928 -0.3313  0.6638
 1301SOL    HW2 5202   1.544   3.717   2.268 -0.4660  0.8127 -1.6354
 1301SOL    HW3 5203   1.467   3.587   2.264 -0.1056  0.5138  0.8644
 1301SOL    MW4 5204   1.533   3.636   2.237  0.1401 -0.0689  0.3869
 1302SOL     OW 5205   1.585   3.864   2.353  0.0626  0.0205 -0.4539
 1302SOL    HW2 5206   1.598   3.848   2.447  2.1170 -0.5709 -0.8174
 1302SOL    HW3 5207   1.667   3.902   2.324 -1.5408  2.8104 -1.4841
 1302SOL    MW4 5208   1.598   3.867   2.362  0.1221  0.3106 -0.6378
 1303SOL     OW 5209   1.366   4.043   2.301 -0.2900 -0.4501 -0.3419
 1303SOL    HW2 5210   1.446   3.999   2.330  0.9173  2.2267  0.5218
 1303SOL    HW3 5211   1.379   4.054   2.206 -0.0040 -0.7058 -0.3349
 1303SOL    MW4 5212   1.378   4.039   2.292 -0.0930 -0.1307 -0.2270
 1304SOL     OW 5213   1.358   4.317   2.342 -0.0207  0.0815 -0.1567
 1304SOL    HW2 5214   1.361   4.223   2.323 -2.1311 -0.2380  0.9305
 1304SOL    HW3 5215   1.276   4.346   2.303 -0.4066  1.0404  1.3361
 1304SOL    MW4 5216   1.348   4.308   2.334 -0.3500  0.1659  0.1837
 1305SOL     OW 5217   1.591   4.431   2.217  0.5031 -0.0367 -0.2849
 1305SOL    HW2 5218   1.515   4.384   2.252  0.8647 -0.5018 -0.1335
 1305SOL    HW3 5219   1.602   4.505   2.277  0.3744 -0.1530 -0.1168
 1305SOL    MW4 5220   1.582   4.435   2.229  0.5338 -0.1134 -0.2427
 1306SOL     OW 5221   2.048   4.633   2.319 -0.0215  0.1346  0.8595
 1306SOL    HW2 5222   2.123   4.678   2.280 -0.0568  0.8570  1.6154
 1306SOL    HW3 5223   2.057   4.542   2.291  2.0933 -0.1336  2.3376
 1306SOL    MW4 5224   2.059   4.627   2.311  0.2528  0.1945  1.1542
 1307SOL     OW 5225   1.805   0.078   2.222 -0.1049  0.1974 -0.0478
 1307SOL    HW2 5226   1.818   0.170   2.243  1.3090  0.1247 -0.5545
 1307SOL    HW3 5227   1.883   0.034   2.255 -0.2119 -0.6418 -0.8737
 1307SOL    MW4 5228   1.817   0.084   2.229  0.0675  0.0771 -0.2237
 1308SOL     OW 5229   1.780   0.326   2.323 -0.2304 -0.0138 -0.0059
 1308SOL    HW2 5230   1.785   0.324   2.419  0.3376 -1.5727 -0.0441
 1308SOL    HW3 5231   1.859   0.372   2.295  1.1459 -2.1694  0.2067
 1308SOL    MW4 5232   1.791   0.332   2.332  0.0261 -0.5039  0.0171
 1309SOL     OW 5233   2.006   0.475   2.286  0.4662 -0.6272  0.0352
 1309SOL    HW2 5234   2.003   0.569   2.304 -1.2628 -0.5755 -0.4376
 1309SOL    HW3 5235   2.055   0.468   2.204  2.1443 -0.2997  0.9793
 1309SOL    MW4 5236   2.012   0.487   2.278  0.4595 -0.5772  0.0974
 1310SOL     OW 5237   2.045   0.743   2.362 -0.3093 -0.4860  0.0147
 1310SOL    HW2 5238   2.121   0.789   2.325 -0.4453 -0.2960 -0.0298
 1310SOL    HW3 5239   1.972   0.803   2.346 -0.2897 -0.1837  1.0478
 1310SOL    MW4 5240   2.046   0.757   2.355 -0.3247 -0.4211  0.1451
 1311SOL     OW 5241   1.839   0.910   2.269  0.8555 -0.6090 -0.2911
 1311SOL    HW2 5242   1.853   0.997   2.306 -1.3166 -0.1669 -0.4591
 1311SOL    HW3 5243   1.833   0.925   2.175 -0.8825 -0.7561 -0.2048
 1311SOL    MW4 5244   1.840   0.924   2.261  0.3396 -0.5701 -0.3019
 1312SOL     OW 5245   1.891   1.175   2.350  0.5641 -0.2381  0.3903
 1312SOL    HW2 5246   1.969   1.218   2.314 -0.0171  0.3552 -0.1686
 1312SOL    HW3 5247   1.818   1.213   2.301  0.0819 -2.2321 -0.4912
 1312SOL    MW4 5248   1.892   1.185   2.339  0.4238 -0.4229  0.2002
 1313SOL     OW 5249   2.110   1.324   2.254  0.3193  0.0978 -0.0898
 1313SOL    HW2 5250   2.081   1.414   2.266 -1.6018 -0.5376  0.2162
 1313SOL    HW3 5251   2.091   1.305   2.162  0.3665 -0.1176 -0.0558
 1313SOL    MW4 5252   2.104   1.333   2.243  0.0721 -0.0145 -0.0450
 1314SOL     OW 5253   2.031   1.567   2.344 -0.3847 -0.2600 -0.0575
 1314SOL    HW2 5254   2.036   1.548   2.438  0.8823 -1.3092 -0.3103
 1314SOL    HW3 5255   1.940   1.594   2.329 -0.9220 -1.2544  1.2680
 1314SOL    MW4 5256   2.020   1.568   2.354 -0.2884 -0.5296  0.0841
 1315SOL     OW 5257   1.776   1.669   2.257  0.0685 -0.2523 -0.0548
 1315SOL    HW2 5258   1.775   1.760   2.288 -0.2680 -0.1799 -0.2742
 1315SOL    HW3 5259   1.786   1.677   2.162  1.5658 -0.4862  0.0784
 1315SOL    MW4 5260   1.777   1.682   2.249  0.2216 -0.2736 -0.0662
 1316SOL     OW 5261   1.804   1.934   2.360  0.5620  0.8667  0.6040
 1316SOL    HW2 5262   1.811   1.935   2.456  0.7488  0.9056  0.5900
 1316SOL    HW3 5263   1.889   1.965   2.330  0.9184 -0.3103  0.3980
 1316SOL    MW4 5264   1.816   1.938   2.369  0.6336  0.7165  0.5750
 1317SOL     OW 5265   2.039   2.070   2.267 -0.0857 -0.0587  0.0533
 1317SOL    HW2 5266   2.121   2.032   2.297 -0.4278 -1.4836 -0.7575
 1317SOL    HW3 5267   2.031   2.041   2.176 -1.4026  0.1941  0.0730
 1317SOL    MW4 5268   2.049   2.061   2.259 -0.3046 -0.2133 -0.0510
 1318SOL     OW 5269   2.051   2.308   2.415 -0.1402 -0.0844  0.0671
 1318SOL    HW2 5270   2.128   2.347   2.376 -0.5912  1.2596  0.5065
 1318SOL    HW3 5271   2.045   2.221   2.375  0.3422  0.6286 -1.5957
 1318SOL    MW4 5272   2.060   2.301   2.405 -0.1360  0.1870 -0.0943
 1319SOL     OW 5273   1.841   2.422   2.258 -0.1503  0.1780  0.1317
 1319SOL    HW2 5274   1.912   2.364   2.285  1.0836  2.3115  1.5830
 1319SOL    HW3 5275   1.761   2.377   2.286  0.7226 -1.2908  0.3013
 1319SOL    MW4 5276   1.839   2.408   2.265  0.1277  0.2657  0.3456
 1320SOL     OW 5277   1.786   2.672   2.366 -0.4422  0.0125 -0.3973
 1320SOL    HW2 5278   1.801   2.586   2.326 -0.8140 -0.1831 -0.1278
 1320SOL    HW3 5279   1.718   2.712   2.312 -0.6207 -0.0659 -0.2312
 1320SOL    MW4 5280   1.779   2.666   2.354 -0.5148 -0.0237 -0.3398
 1321SOL     OW 5281   1.991   2.825   2.274 -0.5295 -0.2817  0.3295
 1321SOL    HW2 5282   2.074   2.787   2.302  0.1468  0.8397 -0.1113
 1321SOL    HW3 5283   1.925   2.773   2.319  0.4441 -0.4523  1.6225
 1321SOL    MW4 5284   1.993   2.813   2.284 -0.3118 -0.1563  0.4420
 1322SOL     OW 5285   1.994   3.082   2.344 -0.3537  0.4267 -0.4806
 1322SOL    HW2 5286   2.060   3.125   2.289 -0.1845 -0.7246 -1.2064
 1322SOL    HW3 5287   1.987   2.993   2.307 -1.7864  0.3166  0.0448
 1322SOL    MW4 5288   2.002   3.076   2.332 -0.5204  0.2603 -0.5070
 1323SOL     OW 5289   1.791   3.229   2.250 -0.4216  0.3692  0.2520
 1323SOL    HW2 5290   1.858   3.169   2.283 -0.0704  0.9610  0.6319
 1323SOL    HW3 5291   1.708   3.188   2.275 -0.2093 -0.5091 -0.4827
 1323SOL    MW4 5292   1.789   3.216   2.258 -0.3472  0.3314  0.2052
 1324SOL     OW 5293   1.811   3.534   2.308  0.2441 -0.4964  0.2025
 1324SOL    HW2 5294   1.801   3.449   2.266  0.0749  0.1467 -1.0853
 1324SOL    HW3 5295   1.723   3.572   2.305  0.3884 -0.1420  0.4784
 1324SOL    MW4 5296   1.798   3.528   2.302  0.2408 -0.3648  0.0690
 1325SOL     OW 5297   2.069   3.586   2.228 -0.2482 -0.3239  0.1398
 1325SOL    HW2 5298   1.978   3.569   2.252 -0.3486 -1.3040 -0.9112
 1325SOL    HW3 5299   2.066   3.607   2.135  0.6355 -0.6495  0.0341
 1325SOL    MW4 5300   2.057   3.587   2.219 -0.1449 -0.4961 -0.0128
 1326SOL     OW 5301   2.048   3.848   2.314  0.0141 -0.6998  0.0799
 1326SOL    HW2 5302   2.039   3.844   2.409 -0.5119 -1.9087 -0.0207
 1326SOL    HW3 5303   2.057   3.757   2.286 -0.3338 -0.3887 -1.0769
 1326SOL    MW4 5304   2.048   3.836   2.323 -0.1012 -0.8183 -0.0860
 1327SOL     OW 5305   1.820   3.997   2.285  0.0199 -0.1287  0.3098
 1327SOL    HW2 5306   1.889   3.930   2.283  1.4244  1.2703  0.7207
 1327SOL    HW3 5307   1.807   4.020   2.193 -0.7570 -1.2210  0.1286
 1327SOL    MW4 5308   1.827   3.991   2.273  0.1027 -0.0882  0.3401
 1328SOL     OW 5309   1.827   4.283   2.310 -0.3649 -0.0799 -0.1444
 1328SOL    HW2 5310   1.820   4.189   2.294 -0.0250 -0.1009 -0.1955
 1328SOL    HW3 5311   1.747   4.320   2.275 -0.8769 -0.4466  0.6353
 1328SOL    MW4 5312   1.816   4.276   2.303 -0.3876 -0.1311 -0.0483
 1329SOL     OW 5313   2.083   4.363   2.236  0.0785  0.0384  0.7147
 1329SOL    HW2 5314   2.002   4.320   2.265 -1.0555  0.8813 -1.1119
 1329SOL    HW3 5315   2.071   4.375   2.142  1.6479  1.6350  0.6963
 1329SOL    MW4 5316   2.071   4.359   2.227  0.1360  0.3602  0.4713
 1330SOL     OW 5317   2.489   4.614   2.373 -0.0842  0.0968 -0.2973
 1330SOL    HW2 5318   2.574   4.652   2.353  0.1914  0.0420  0.7662
 1330SOL    HW3 5319   2.488   4.531   2.324  1.1405 -0.6914  0.9660
 1330SOL    MW4 5320   2.500   4.608   2.364  0.1137 -0.0144  0.0097
 1331SOL     OW 5321   2.304   0.092   2.240  0.1280 -0.0954  0.3145
 1331SOL    HW2 5322   2.278   0.169   2.290  2.7729  1.2617 -0.2754
 1331SOL    HW3 5323   2.372   0.050   2.292 -0.1053 -1.0869 -0.1555
 1331SOL    MW4 5324   2.310   0.097   2.253  0.4462 -0.0472  0.1746
 1332SOL     OW 5325   2.231   0.332   2.389 -0.2023 -0.1442 -0.0259
 1332SOL    HW2 5326   2.310   0.371   2.351 -0.4799 -0.5505 -1.0113
 1332SOL    HW3 5327   2.160   0.388   2.359 -0.3062  0.2027  0.8366
 1332SOL    MW4 5328   2.232   0.345   2.380 -0.2526 -0.1521 -0.0421
 1333SOL     OW 5329   2.452   0.447   2.264  0.0068  0.2301 -0.0536
 1333SOL    HW2 5330   2.537   0.406   2.281 -0.5017 -0.9322 -0.2107
 1333SOL    HW3 5331   2.447   0.455   2.169 -0.1586  0.0426 -0.0635
 1333SOL    MW4 5332   2.462   0.442   2.254 -0.0821  0.0520 -0.0756
 1334SOL     OW 5333   2.472   0.700   2.381 -0.3636  0.0960  0.7001
 1334SOL    HW2 5334   2.560   0.720   2.348 -0.8368 -0.4636 -0.9280
 1334SOL    HW3 5335   2.455   0.612   2.350 -1.0035 -0.2829  2.1068
 1334SOL    MW4 5336   2.482   0.691   2.373 -0.5105 -0.0279  0.6709
 1335SOL     OW 5337   2.272   0.868   2.277  0.7743 -0.0987 -0.0175
 1335SOL    HW2 5338   2.283   0.948   2.329  0.0473 -1.0205  1.5938
 1335SOL    HW3 5339   2.342   0.810   2.308  0.4808 -0.5742 -0.2431
 1335SOL    MW4 5340   2.283   0.871   2.288  0.6396 -0.2831  0.1653
 1336SOL     OW 5341   2.297   1.170   2.404  0.0635  0.1222  0.1624
 1336SOL    HW2 5342   2.374   1.204   2.358 -0.0801 -0.3606 -0.4452
 1336SOL    HW3 5343   2.225   1.223   2.371  0.3906  1.8200  2.1169
 1336SOL    MW4 5344   2.298   1.181   2.393  0.0877  0.2825  0.3401
 1337SOL     OW 5345   2.513   1.246   2.256  0.1686 -0.3394  0.1693
 1337SOL    HW2 5346   2.586   1.201   2.297  0.2535 -0.1692  0.2078
 1337SOL    HW3 5347   2.511   1.332   2.299  0.4282 -0.0586 -0.3661
 1337SOL    MW4 5348   2.522   1.252   2.267  0.2140 -0.2799  0.1037
 1338SOL     OW 5349   2.447   1.515   2.332  0.1144  0.3134  0.0797
 1338SOL    HW2 5350   2.438   1.494   2.425 -2.1953 -0.6893 -0.3278
 1338SOL    HW3 5351   2.526   1.568   2.327  0.7154 -0.2841  2.5044
 1338SOL    MW4 5352   2.456   1.519   2.343 -0.1111  0.1023  0.3458
 1339SOL     OW 5353   2.261   1.702   2.265 -0.0467  0.4237  0.2144
 1339SOL    HW2 5354   2.332   1.641   2.287 -0.3740 -0.8674 -2.1631
 1339SOL    HW3 5355   2.181   1.656   2.289 -0.2124  0.6177  0.0356
 1339SOL    MW4 5356   2.260   1.688   2.271 -0.1118  0.2790 -0.1229
 1340SOL     OW 5357   2.258   1.948   2.372 -0.0487  0.7377 -0.4345
 1340SOL    HW2 5358   2.342   1.988   2.348 -0.1070  0.3393 -1.3354
 1340SOL    HW3 5359   2.261   1.861   2.333 -0.4521  0.3357  0.4273
 1340SOL    MW4 5360   2.269   1.942   2.363 -0.1096  0.6321 -0.4396
 1341SOL     OW 5361   2.503   2.088   2.288  0.0704 -0.0067 -0.4725
 1341SOL    HW2 5362   2.568   2.027   2.323  0.3667 -0.3071 -1.5187
 1341SOL    HW3 5363   2.500   2.068   2.195 -2.6361 -1.0460 -0.2098
 1341SOL    MW4 5364   2.511   2.077   2.280 -0.2476 -0.1835 -0.5759
 1342SOL     OW 5365   2.508   2.328   2.416  0.1071  0.0361 -0.0465
 1342SOL    HW2 5366   2.577   2.381   2.376 -0.7378  0.4832 -0.9191
 1342SOL    HW3 5367   2.508   2.247   2.365 -0.0146  0.0384 -0.0500
 1342SOL    MW4 5368   2.517   2.324   2.404 -0.0204  0.0954 -0.1621
 1343SOL     OW 5369   2.246   2.428   2.282 -0.0220 -0.0960  0.0807
 1343SOL    HW2 5370   2.246   2.517   2.317 -0.1115 -0.4096  0.8962
 1343SOL    HW3 5371   2.331   2.392   2.308  0.2268 -0.0761 -0.6945
 1343SOL    MW4 5372   2.257   2.435   2.290 -0.0010 -0.1348  0.0860
 1344SOL     OW 5373   2.230   2.685   2.380 -0.0910  0.9398  0.3038
 1344SOL    HW2 5374   2.222   2.679   2.475  3.0470 -0.3712  0.5357
 1344SOL    HW3 5375   2.311   2.734   2.365 -0.1816  0.5405 -1.6891
 1344SOL    MW4 5376   2.239   2.691   2.391  0.3111  0.7141  0.0715
 1345SOL     OW 5377   2.460   2.816   2.290 -0.1294 -0.1638 -0.5245
 1345SOL    HW2 5378   2.546   2.789   2.321 -0.3677 -0.8709 -0.4692
 1345SOL    HW3 5379   2.466   2.811   2.194 -0.1426 -0.3262 -0.5173
 1345SOL    MW4 5380   2.472   2.812   2.281 -0.1626 -0.2785 -0.5163
 1346SOL     OW 5381   2.426   3.086   2.340  0.0320 -0.1798 -0.0469
 1346SOL    HW2 5382   2.513   3.101   2.302 -0.0959 -0.1129 -0.3095
 1346SOL    HW3 5383   2.410   2.993   2.327 -0.9790  0.2631 -2.1854
 1346SOL    MW4 5384   2.436   3.076   2.333 -0.1183 -0.1125 -0.3637
 1347SOL     OW 5385   2.223   3.224   2.242 -0.2662  0.2009  0.2022
 1347SOL    HW2 5386   2.231   3.315   2.270  0.5733  0.0682  0.4153
 1347SOL    HW3 5387   2.299   3.180   2.280 -0.8875 -0.6853  0.4478
 1347SOL    MW4 5388   2.234   3.230   2.251 -0.2374  0.0665  0.2627
 1348SOL     OW 5389   2.281   3.470   2.347 -0.9303  0.2125  0.0836
 1348SOL    HW2 5390   2.271   3.475   2.442 -1.8123 -0.9215  0.0686
 1348SOL    HW3 5391   2.205   3.518   2.312  0.6511  2.6816 -0.0726
 1348SOL    MW4 5392   2.270   3.477   2.355 -0.8380  0.3886  0.0610
 1349SOL     OW 5393   2.492   3.613   2.240  0.3049  0.2761 -0.4187
 1349SOL    HW2 5394   2.492   3.699   2.282 -0.6590 -0.0662  0.3024
 1349SOL    HW3 5395   2.413   3.570   2.272  0.3735 -0.5957 -1.3736
 1349SOL    MW4 5396   2.482   3.618   2.250  0.1868  0.1159 -0.4495
 1350SOL     OW 5397   2.464   3.841   2.382 -0.1449  0.1163  0.0070
 1350SOL    HW2 5398   2.457   3.866   2.474  0.9888  0.1253  0.0979
 1350SOL    HW3 5399   2.391   3.886   2.339  1.1901  2.7314  0.3426
 1350SOL    MW4 5400   2.454   3.850   2.389  0.1808  0.4625  0.0633
 1351SOL     OW 5401   2.274   3.997   2.254  0.0552  0.5186 -0.0810
 1351SOL    HW2 5402   2.263   4.084   2.291  0.3123  0.4525  0.1541
 1351SOL    HW3 5403   2.192   3.952   2.272 -0.2666  0.8749 -0.6450
 1351SOL    MW4 5404   2.262   4.003   2.261  0.0466  0.5569 -0.1244
 1352SOL     OW 5405   2.268   4.234   2.381  0.4148  0.0172 -0.5106
 1352SOL    HW2 5406   2.260   4.238   2.476  3.5267  1.0652 -0.2402
 1352SOL    HW3 5407   2.194   4.285   2.348 -0.9764 -0.7805  1.2966
 1352SOL    MW4 5408   2.257   4.241   2.389  0.6418  0.0502 -0.2365
 1353SOL     OW 5409   2.473   4.381   2.225  0.1576  0.1997 -0.5116
 1353SOL    HW2 5410   2.555   4.340   2.252  0.8675  0.1173 -2.7142
 1353SOL    HW3 5411   2.406   4.335   2.275  1.0109 -3.0993 -2.2672
 1353SOL    MW4 5412   2.475   4.370   2.235  0.3638 -0.2464 -1.0338
 1354SOL     OW 5413   2.910   4.603   2.356 -0.1764 -0.1912  0.4491
 1354SOL    HW2 5414   2.985   4.651   2.321 -0.1521 -0.6563 -0.1443
 1354SOL    HW3 5415   2.923   4.513   2.326 -0.6222 -0.4110  0.9086
 1354SOL    MW4 5416   2.922   4.597   2.348 -0.2320 -0.2815  0.4314
 1355SOL     OW 5417   2.703   0.095   2.260 -0.5386 -0.5900  0.6200
 1355SOL    HW2 5418   2.722   0.180   2.299 -0.1574 -0.3083 -0.1594
 1355SOL    HW3 5419   2.771   0.037   2.295  0.0437 -0.2464  0.0809
 1355SOL    MW4 5420   2.715   0.098   2.269 -0.4115 -0.5075  0.4460
 1356SOL     OW 5421   2.705   0.349   2.357  0.4642 -0.0118  0.0332
 1356SOL    HW2 5422   2.709   0.358   2.452  2.4152  0.1595 -0.0359
 1356SOL    HW3 5423   2.788   0.387   2.326 -0.8273  1.3839 -1.8469
 1356SOL    MW4 5424   2.717   0.355   2.365  0.5512  0.1950 -0.2239
 1357SOL     OW 5425   2.934   0.437   2.251  0.5309 -0.0395 -0.0591
 1357SOL    HW2 5426   2.953   0.525   2.285 -1.0290  0.9088 -1.5661
 1357SOL    HW3 5427   2.935   0.447   2.156  0.0999 -1.6037 -0.2404
 1357SOL    MW4 5428   2.937   0.450   2.243  0.2682 -0.1208 -0.2819
 1358SOL     OW 5429   2.980   0.709   2.332  0.1621  0.0821  0.0039
 1358SOL    HW2 5430   2.983   0.704   2.428  1.5052 -0.7329 -0.0647
 1358SOL    HW3 5431   2.894   0.745   2.312  0.4147  1.5899  1.5795
 1358SOL    MW4 5432   2.969   0.713   2.342  0.3727  0.1735  0.2028
 1359SOL     OW 5433   2.724   0.794   2.301  0.3996  0.0714 -0.0797
 1359SOL    HW2 5434   2.709   0.883   2.332  0.9010 -0.3560  1.4534
 1359SOL    HW3 5435   2.713   0.799   2.206  0.8337  1.8417 -0.0536
 1359SOL    MW4 5436   2.720   0.806   2.293  0.5230  0.2486  0.1260
 1360SOL     OW 5437   2.715   1.090   2.375  0.2777  0.2505 -0.4681
 1360SOL    HW2 5438   2.707   1.107   2.469 -1.0135  1.4422 -0.7693
 1360SOL    HW3 5439   2.778   1.154   2.343  2.0170 -1.2504 -0.1583
 1360SOL    MW4 5440   2.722   1.100   2.383  0.3368  0.2097 -0.4670
 1361SOL     OW 5441   2.896   1.272   2.294  0.4144 -0.5696  0.4941
 1361SOL    HW2 5442   2.977   1.224   2.311  0.9328  0.2633  0.4082
 1361SOL    HW3 5443   2.890   1.278   2.198  0.0234 -1.0129  0.4897
 1361SOL    MW4 5444   2.906   1.267   2.283  0.4312 -0.5182  0.4822
 1362SOL     OW 5445   2.927   1.539   2.359 -0.2934 -0.3841 -0.0919
 1362SOL    HW2 5446   2.919   1.544   2.454  1.8418 -2.2986  0.2361
 1362SOL    HW3 5447   2.923   1.445   2.340 -0.3812 -0.0368 -1.8643
 1362SOL    MW4 5448   2.926   1.527   2.369 -0.0233 -0.5908 -0.2825
 1363SOL     OW 5449   2.678   1.656   2.298 -0.0686  0.0149  0.4556
 1363SOL    HW2 5450   2.766   1.627   2.321 -0.8892 -1.4606  1.8579
 1363SOL    HW3 5451   2.670   1.638   2.204  0.7581 -0.8572  0.5437
 1363SOL    MW4 5452   2.688   1.649   2.289 -0.0678 -0.2948  0.6522
 1364SOL     OW 5453   2.700   1.922   2.360 -0.2401 -0.3752  0.0762
 1364SOL    HW2 5454   2.707   1.922   2.455  0.3171 -1.0087  0.0453
 1364SOL    HW3 5455   2.701   1.829   2.336  0.6654 -0.2051 -0.6023
 1364SOL    MW4 5456   2.701   1.909   2.369 -0.0471 -0.4363 -0.0174
 1365SOL     OW 5457   2.925   2.068   2.250 -0.5143 -0.2262  0.0900
 1365SOL    HW2 5458   3.003   2.035   2.296 -1.3267  0.1609  1.7715
 1365SOL    HW3 5459   2.853   2.013   2.283 -1.1862  0.3929 -0.3483
 1365SOL    MW4 5460   2.926   2.056   2.260 -0.7102 -0.0935  0.2540
 1366SOL     OW 5461   2.940   2.312   2.367  0.0354 -0.0295 -0.2884
 1366SOL    HW2 5462   2.933   2.298   2.462  1.8591 -1.1816 -0.3057
 1366SOL    HW3 5463   2.928   2.224   2.330  0.7065  0.1968 -1.0408
 1366SOL    MW4 5464   2.937   2.298   2.375  0.3646 -0.1517 -0.3899
 1367SOL     OW 5465   2.728   2.472   2.307  0.3262 -0.0574 -0.1408
 1367SOL    HW2 5466   2.807   2.425   2.332  0.6096  0.3126 -0.3509
 1367SOL    HW3 5467   2.721   2.461   2.213  0.0703 -0.1764 -0.1101
 1367SOL    MW4 5468   2.737   2.464   2.298  0.3298 -0.0243 -0.1645
 1368SOL     OW 5469   2.714   2.756   2.378  0.1697  0.1746 -0.1314
 1368SOL    HW2 5470   2.805   2.783   2.364 -0.3593  1.2201 -1.6738
 1368SOL    HW3 5471   2.714   2.662   2.358  1.2754 -0.2444  1.7144
 1368SOL    MW4 5472   2.726   2.747   2.374  0.2458  0.2573 -0.0914
 1369SOL     OW 5473   2.963   2.840   2.334  0.0101  0.3695  0.2435
 1369SOL    HW2 5474   2.948   2.929   2.366 -0.8451  0.8162 -1.3269
 1369SOL    HW3 5475   2.943   2.845   2.241  0.2551 -1.4052  0.0845
 1369SOL    MW4 5476   2.958   2.853   2.326 -0.0704  0.1943  0.0153
 1370SOL     OW 5477   2.924   3.101   2.395  0.4325 -0.1839  0.3267
 1370SOL    HW2 5478   2.993   3.160   2.364  0.1526  0.0329  0.1114
 1370SOL    HW3 5479   2.842   3.141   2.364  0.1928 -0.3043  0.7945
 1370SOL    MW4 5480   2.922   3.114   2.387  0.3639 -0.1712  0.3600
 1371SOL     OW 5481   2.681   3.193   2.271 -0.1776 -0.6465 -0.3994
 1371SOL    HW2 5482   2.681   3.284   2.303  1.0686 -1.3173  1.5823
 1371SOL    HW3 5483   2.691   3.201   2.177  1.8876  1.2391 -0.0549
 1371SOL    MW4 5484   2.682   3.206   2.263  0.2593 -0.4862 -0.0925
 1372SOL     OW 5485   2.712   3.469   2.369 -0.1177 -0.3478 -0.8241
 1372SOL    HW2 5486   2.787   3.498   2.318 -0.6791 -3.3917 -3.5244
 1372SOL    HW3 5487   2.636   3.497   2.319 -0.7010 -1.2789 -0.4844
 1372SOL    MW4 5488   2.712   3.476   2.356 -0.2687 -0.8723 -1.1355
 1373SOL     OW 5489   2.930   3.604   2.250 -0.0150 -0.6570 -0.3171
 1373SOL    HW2 5490   3.003   3.561   2.293  1.5537  0.3689 -1.8578
 1373SOL    HW3 5491   2.919   3.687   2.298  0.3210 -0.4893 -0.5236
 1373SOL    MW4 5492   2.938   3.610   2.262  0.2363 -0.4995 -0.5477
 1374SOL     OW 5493   2.911   3.838   2.380  0.2569  0.4599 -0.2227
 1374SOL    HW2 5494   2.918   3.864   2.472  0.2522  2.1352 -0.6840
 1374SOL    HW3 5495   2.840   3.892   2.345  1.3165  0.9673 -1.6040
 1374SOL    MW4 5496   2.902   3.849   2.387  0.3961  0.7479 -0.4658
 1375SOL     OW 5497   2.708   3.991   2.272  0.1761  0.0357  0.0270
 1375SOL    HW2 5498   2.642   3.937   2.314  1.5704 -1.9260 -0.1981
 1375SOL    HW3 5499   2.693   3.980   2.178  1.0059 -0.6769 -0.0299
 1375SOL    MW4 5500   2.697   3.983   2.265  0.4696 -0.3171 -0.0102
 1376SOL     OW 5501   2.679   4.266   2.360  0.4723 -0.2123 -0.2655
 1376SOL    HW2 5502   2.665   4.281   2.453 -0.6603  2.0019 -0.7518
 1376SOL    HW3 5503   2.679   4.171   2.351  0.0109 -0.4472  1.9087
 1376SOL    MW4 5504   2.677   4.255   2.371  0.2620  0.0489 -0.0428
 1377SOL     OW 5505   2.913   4.347   2.263  0.4489  0.4529  0.3420
 1377SOL    HW2 5506   2.976   4.288   2.304  0.7765  0.5532 -0.0074
 1377SOL    HW3 5507   2.828   4.322   2.299  0.5559 -0.3896  0.0063
 1377SOL    MW4 5508   2.910   4.336   2.273  0.5062  0.3550  0.2516
 1378SOL     OW 5509   3.377   4.614   2.366  0.1444 -0.0982  0.1915
 1378SOL    HW2 5510   3.353   4.635   2.456  0.8270  0.5802  0.2188
 1378SOL    HW3 5511   3.468   4.642   2.358  0.7255 -2.0004 -0.1284
 1378SOL    MW4 5512   3.385   4.620   2.377  0.3112 -0.2596  0.1529
 1379SOL     OW 5513   3.164   0.083   2.261  0.1455 -0.0528  0.3545
 1379SOL    HW2 5514   3.169   0.164   2.313 -0.8153  2.0388 -2.6802
 1379SOL    HW3 5515   3.249   0.041   2.273  0.6910  1.4307  1.9026
 1379SOL    MW4 5516   3.176   0.088   2.269  0.0907  0.4189  0.1583
 1380SOL     OW 5517   3.181   0.335   2.373  0.0152 -0.2624  0.1964
 1380SOL    HW2 5518   3.256   0.390   2.351  0.3292 -1.3008 -1.4117
 1380SOL    HW3 5519   3.111   0.363   2.314  0.1221 -1.4558 -0.5138
 1380SOL    MW4 5520   3.181   0.346   2.363  0.0707 -0.5568 -0.1095
 1381SOL     OW 5521   3.411   0.458   2.270 -0.2152  0.5537 -0.0230
 1381SOL    HW2 5522   3.497   0.430   2.302 -0.0632  1.4899  0.3966
 1381SOL    HW3 5523   3.413   0.439   2.176  0.4941  0.6786 -0.0338
 1381SOL    MW4 5524   3.422   0.452   2.262 -0.1015  0.6937  0.0309
 1382SOL     OW 5525   3.416   0.705   2.377  0.0832  0.3451 -0.4794
 1382SOL    HW2 5526   3.461   0.773   2.327  1.4741 -0.8185 -0.8309
 1382SOL    HW3 5527   3.418   0.628   2.321  0.4719 -0.6032  0.8103
 1382SOL    MW4 5528   3.422   0.704   2.363  0.3180  0.0665 -0.3556
 1383SOL     OW 5529   3.185   0.876   2.274 -0.3443  0.6974 -0.5054
 1383SOL    HW2 5530   3.252   0.826   2.319 -0.7168  0.7512  0.1270
 1383SOL    HW3 5531   3.103   0.829   2.292 -0.6728  1.4284 -0.0371
 1383SOL    MW4 5532   3.183   0.863   2.282 -0.4368  0.8009 -0.3602
 1384SOL     OW 5533   3.125   1.130   2.387  0.2649 -0.5493  0.5382
 1384SOL    HW2 5534   3.200   1.186   2.369 -0.3679  0.2595  0.4116
 1384SOL    HW3 5535   3.150   1.045   2.350  0.6723 -0.0033 -0.4480
 1384SOL    MW4 5536   3.139   1.126   2.380  0.2351 -0.3706  0.3914
 1385SOL     OW 5537   3.347   1.268   2.275  0.3435  0.3550 -0.1937
 1385SOL    HW2 5538   3.427   1.220   2.299 -0.9972 -0.9660  1.7793
 1385SOL    HW3 5539   3.362   1.357   2.305  1.3544  0.2910 -0.4935
 1385SOL    MW4 5540   3.360   1.273   2.282  0.3000  0.1722  0.0270
 1386SOL     OW 5541   3.381   1.529   2.372 -0.1097 -0.0079  0.3887
 1386SOL    HW2 5542   3.359   1.551   2.462 -0.4900 -0.8349  0.5084
 1386SOL    HW3 5543   3.320   1.580   2.319  1.8532  2.5341  0.4787
 1386SOL    MW4 5544   3.370   1.538   2.377  0.0991  0.2184  0.4163
 1387SOL     OW 5545   3.148   1.685   2.266  0.2041 -0.2306 -0.1215
 1387SOL    HW2 5546   3.138   1.776   2.295  1.1427  0.1380 -0.9317
 1387SOL    HW3 5547   3.070   1.641   2.299 -1.4538  1.4087 -1.7982
 1387SOL    MW4 5548   3.137   1.691   2.274  0.1092  0.0343 -0.4496
 1388SOL     OW 5549   3.160   1.949   2.370  0.1142  0.1011  0.2246
 1388SOL    HW2 5550   3.163   1.927   2.463  0.4403 -0.8399  0.0049
 1388SOL    HW3 5551   3.250   1.974   2.348 -0.5739  3.3274  0.8349
 1388SOL    MW4 5552   3.173   1.949   2.379  0.0664  0.4026  0.2761
 1389SOL     OW 5553   3.407   2.048   2.306 -0.0594  0.0603  0.2720
 1389SOL    HW2 5554   3.479   1.989   2.324 -0.1370  0.2367  1.1607
 1389SOL    HW3 5555   3.396   2.044   2.211  1.1651  0.0893  0.1183
 1389SOL    MW4 5556   3.415   2.040   2.296  0.0919  0.0874  0.3690
 1390SOL     OW 5557   3.409   2.322   2.396 -0.3120  0.3542  0.4925
 1390SOL    HW2 5558   3.324   2.352   2.365 -0.3665 -1.8910 -1.7557
 1390SOL    HW3 5559   3.414   2.231   2.365  2.1792 -0.0732  2.0653
 1390SOL    MW4 5560   3.398   2.314   2.388  0.0095  0.0016  0.4033
 1391SOL     OW 5561   3.169   2.430   2.285 -0.3098  0.0035  0.0913
 1391SOL    HW2 5562   3.171   2.515   2.329  0.0035 -1.1086  2.2948
 1391SOL    HW3 5563   3.087   2.390   2.314  0.3890 -1.1602  0.4920
 1391SOL    MW4 5564   3.159   2.436   2.295 -0.1763 -0.2968  0.4349
 1392SOL     OW 5565   3.176   2.688   2.426  0.2674 -0.0419 -0.1569
 1392SOL    HW2 5566   3.156   2.687   2.520  0.7518  0.4383 -0.0482
 1392SOL    HW3 5567   3.108   2.743   2.388  0.8994  0.9420  0.1097
 1392SOL    MW4 5568   3.164   2.696   2.433  0.4147  0.1513 -0.1074
 1393SOL     OW 5569   3.365   2.813   2.286  0.3058 -0.3801  0.1781
 1393SOL    HW2 5570   3.353   2.904   2.312 -1.2003 -0.2245 -0.9533
 1393SOL    HW3 5571   3.306   2.763   2.343 -0.4416 -0.4030 -0.5963
 1393SOL    MW4 5572   3.355   2.818   2.297  0.0085 -0.3626 -0.0733
 1394SOL     OW 5573   3.370   3.084   2.361  0.0334  0.1164  0.7888
 1394SOL    HW2 5574   3.442   3.134   2.322 -0.5984  0.0293 -0.5097
 1394SOL    HW3 5575   3.291   3.129   2.334 -0.4627 -0.4618  1.2423
 1394SOL    MW4 5576   3.369   3.096   2.352 -0.1154  0.0286  0.6774
 1395SOL     OW 5577   3.145   3.230   2.260 -0.1511  0.0786  0.1106
 1395SOL    HW2 5578   3.155   3.315   2.304 -0.7456  0.2287 -0.0330
 1395SOL    HW3 5579   3.171   3.247   2.169 -1.7165  0.4850 -0.2789
 1395SOL    MW4 5580   3.150   3.244   2.254 -0.4361  0.1520  0.0403
 1396SOL     OW 5581   3.152   3.473   2.382  0.1115 -0.5258  0.4008
 1396SOL    HW2 5582   3.147   3.496   2.474  1.2219  2.4031 -0.2051
 1396SOL    HW3 5583   3.236   3.509   2.353  0.3597 -2.4935 -1.4697
 1396SOL    MW4 5584   3.163   3.481   2.390  0.2908 -0.3990  0.0741
 1397SOL     OW 5585   3.381   3.608   2.294  0.1675 -0.1690 -0.1237
 1397SOL    HW2 5586   3.462   3.565   2.321  1.0942  1.5698 -0.0842
 1397SOL    HW3 5587   3.387   3.613   2.199  0.0088 -0.1835 -0.1357
 1397SOL    MW4 5588   3.392   3.603   2.285  0.2688  0.0585 -0.1201
 1398SOL     OW 5589   3.340   3.875   2.348  0.1354 -0.1274  0.4268
 1398SOL    HW2 5590   3.419   3.920   2.321 -0.2679  0.1732 -0.2703
 1398SOL    HW3 5591   3.361   3.782   2.340  0.0147 -0.0456 -0.9547
 1398SOL    MW4 5592   3.353   3.869   2.343  0.0662 -0.0770  0.1525
 1399SOL     OW 5593   3.104   3.969   2.235  0.1913  0.2793 -0.6802
 1399SOL    HW2 5594   3.189   3.934   2.263 -0.3558  0.0338  0.7037
 1399SOL    HW3 5595   3.040   3.911   2.275 -0.6524  1.1199 -0.8029
 1399SOL    MW4 5596   3.107   3.957   2.244  0.0078  0.3578 -0.5138
 1400SOL     OW 5597   3.119   4.215   2.377 -0.3852  0.4779  0.0674
 1400SOL    HW2 5598   3.187   4.264   2.330 -1.4549  1.1613 -0.7947
 1400SOL    HW3 5599   3.113   4.132   2.331  1.1852 -0.3629  1.3149
 1400SOL    MW4 5600   3.127   4.211   2.365 -0.3191  0.4571  0.1182
 1401SOL     OW 5601   3.314   4.364   2.258 -0.1136 -0.5023  0.5286
 1401SOL    HW2 5602   3.342   4.452   2.284 -1.5880  0.2501 -0.3854
 1401SOL    HW3 5603   3.331   4.360   2.164 -0.2952 -1.1038  0.5185
 1401SOL    MW4 5604   3.320   4.375   2.249 -0.3321 -0.4824  0.4067
 1402SOL     OW 5605   3.808   4.609   2.428 -0.1125  0.3708  0.4568
 1402SOL    HW2 5606   3.819   4.622   2.522  0.0208  3.0147  0.1134
 1402SOL    HW3 5607   3.882   4.656   2.389 -0.6353 -0.0073 -1.0046
 1402SOL    MW4 5608   3.819   4.617   2.435 -0.1639  0.6698  0.2186
 1403SOL     OW 5609   3.599   0.072   2.284 -0.4330 -0.2666 -0.4714
 1403SOL    HW2 5610   3.611   0.155   2.329 -1.6168 -0.9581  1.1711
 1403SOL    HW3 5611   3.676   0.020   2.309  0.8378  0.6571 -2.3285
 1403SOL    MW4 5612   3.611   0.076   2.293 -0.4215 -0.2360 -0.4997
 1404SOL     OW 5613   3.645   0.325   2.370  0.2184 -0.6848  0.2914
 1404SOL    HW2 5614   3.623   0.329   2.464  0.8351 -1.0619  0.4540
 1404SOL    HW3 5615   3.714   0.389   2.358  0.0047 -0.4973  0.0508
 1404SOL    MW4 5616   3.651   0.334   2.381  0.2716 -0.7098  0.2811
 1405SOL     OW 5617   3.840   0.498   2.298  0.0776  0.4093 -0.9375
 1405SOL    HW2 5618   3.814   0.585   2.328 -0.8238 -0.1040 -0.2299
 1405SOL    HW3 5619   3.840   0.505   2.203 -1.0672  0.8806 -0.9118
 1405SOL    MW4 5620   3.837   0.510   2.289 -0.1923  0.4037 -0.8408
 1406SOL     OW 5621   3.771   0.759   2.377  0.0108 -0.3134  0.2617
 1406SOL    HW2 5622   3.776   0.778   2.471 -1.6163 -0.9593  0.4921
 1406SOL    HW3 5623   3.848   0.803   2.339  0.4199  0.3382  1.8215
 1406SOL    MW4 5624   3.782   0.767   2.384 -0.1499 -0.3127  0.4979
 1407SOL     OW 5625   3.575   0.890   2.244  0.4758 -0.0443  0.5652
 1407SOL    HW2 5626   3.637   0.837   2.294 -0.5954 -1.4105  0.4961
 1407SOL    HW3 5627   3.587   0.863   2.153 -0.2151 -0.3158  0.5512
 1407SOL    MW4 5628   3.585   0.880   2.239  0.2433 -0.2604  0.5543
 1408SOL     OW 5629   3.569   1.150   2.359 -0.5217  0.0413 -0.4303
 1408SOL    HW2 5630   3.574   1.140   2.454  0.8096  1.2896 -0.3416
 1408SOL    HW3 5631   3.582   1.061   2.324 -0.4633 -0.3345  0.5481
 1408SOL    MW4 5632   3.572   1.137   2.367 -0.3383  0.1564 -0.2895
 1409SOL     OW 5633   3.816   1.258   2.274 -0.4674 -0.7493  0.0079
 1409SOL    HW2 5634   3.815   1.343   2.317  0.8924 -0.2336 -0.9293
 1409SOL    HW3 5635   3.728   1.223   2.287 -1.5828  1.5542 -1.0930
 1409SOL    MW4 5636   3.804   1.264   2.282 -0.4352 -0.3773 -0.2610
 1410SOL     OW 5637   3.855   1.529   2.382 -0.1800  0.2027  0.4380
 1410SOL    HW2 5638   3.860   1.534   2.478 -0.9317  1.0876  0.4379
 1410SOL    HW3 5639   3.766   1.560   2.361  0.4656  1.3687 -0.6330
 1410SOL    MW4 5640   3.844   1.534   2.392 -0.1940  0.4733  0.2967
 1411SOL     OW 5641   3.624   1.629   2.289 -0.2090  0.6228 -0.0622
 1411SOL    HW2 5642   3.551   1.570   2.311 -1.2908  1.5323 -1.0879
 1411SOL    HW3 5643   3.614   1.644   2.195  1.2837  0.8062 -0.1918
 1411SOL    MW4 5644   3.613   1.623   2.279 -0.1548  0.7670 -0.2146
 1412SOL     OW 5645   3.612   1.892   2.385 -0.1477  0.5295 -0.1020
 1412SOL    HW2 5646   3.685   1.934   2.339  0.0564  0.5445  0.2384
 1412SOL    HW3 5647   3.617   1.800   2.360  0.5494  0.3600  0.6681
 1412SOL    MW4 5648   3.622   1.886   2.375 -0.0288  0.5091  0.0445
 1413SOL     OW 5649   3.822   1.998   2.233 -0.0351  0.1408 -0.0928
 1413SOL    HW2 5650   3.909   1.984   2.269 -0.0414 -0.7384 -0.4225
 1413SOL    HW3 5651   3.838   2.030   2.144 -0.0396  0.8754  0.1677
 1413SOL    MW4 5652   3.835   2.001   2.226 -0.0365  0.1217 -0.1019
 1414SOL     OW 5653   3.810   2.249   2.366 -0.1355 -0.1220  0.4627
 1414SOL    HW2 5654   3.738   2.301   2.331 -0.5927 -0.9911  0.1023
 1414SOL    HW3 5655   3.816   2.174   2.307  1.3160  0.1397  0.2628
 1414SOL    MW4 5656   3.801   2.246   2.354 -0.0043 -0.2022  0.3888
 1415SOL     OW 5657   3.641   2.451   2.299  0.1851  0.2729 -0.3524
 1415SOL    HW2 5658   3.555   2.418   2.325  0.5690 -2.0019 -1.8000
 1415SOL    HW3 5659   3.635   2.460   2.204  1.5732 -0.0003 -0.4757
 1415SOL    MW4 5660   3.629   2.448   2.290  0.4189 -0.0633 -0.5596
 1416SOL     OW 5661   3.604   2.732   2.389  0.7710  0.2257  0.1458
 1416SOL    HW2 5662   3.616   2.648   2.345 -0.7452 -0.4759  1.0296
 1416SOL    HW3 5663   3.523   2.767   2.350 -0.7424 -0.5300  2.5239
 1416SOL    MW4 5664   3.595   2.726   2.378  0.3713  0.0334  0.5762
 1417SOL     OW 5665   3.810   2.837   2.249 -0.3086 -0.4613 -0.1729
 1417SOL    HW2 5666   3.818   2.926   2.284  1.3250 -0.9388  0.7272
 1417SOL    HW3 5667   3.732   2.801   2.291  1.1653 -0.7345  2.4135
 1417SOL    MW4 5668   3.801   2.844   2.259  0.1014 -0.5604  0.2871
 1418SOL     OW 5669   3.826   3.102   2.346 -0.2274  0.0910  0.1953
 1418SOL    HW2 5670   3.828   3.088   2.440  0.6752 -1.1101  0.0123
 1418SOL    HW3 5671   3.900   3.160   2.329  1.3809 -1.9830 -0.1008
 1418SOL    MW4 5672   3.836   3.108   2.356  0.1039 -0.3411  0.1321
 1419SOL     OW 5673   3.579   3.226   2.266  0.1008  0.0322  0.1236
 1419SOL    HW2 5674   3.580   3.315   2.303  1.3626 -0.2561  0.8150
 1419SOL    HW3 5675   3.655   3.183   2.304  1.2736 -0.3878 -2.5280
 1419SOL    MW4 5676   3.589   3.232   2.276  0.4220 -0.0613 -0.1350
 1420SOL     OW 5677   3.614   3.487   2.361  0.2371  0.2050  0.0959
 1420SOL    HW2 5678   3.623   3.473   2.456  1.1193  0.4216  0.0448
 1420SOL    HW3 5679   3.682   3.550   2.339  0.8412 -0.7740 -0.8981
 1420SOL    MW4 5680   3.624   3.493   2.371  0.4332  0.1044 -0.0420
 1421SOL     OW 5681   3.832   3.626   2.275 -0.0334 -0.3030 -0.0741
 1421SOL    HW2 5682   3.809   3.712   2.312  0.7539 -0.3732  0.5719
 1421SOL    HW3 5683   3.826   3.639   2.180 -0.1855  0.3915  0.0286
 1421SOL    MW4 5684   3.828   3.639   2.267  0.0504 -0.2207  0.0247
 1422SOL     OW 5685   3.786   3.885   2.388  0.4002  0.3765  0.1742
 1422SOL    HW2 5686   3.790   3.893   2.483  1.9725 -0.7514  0.2028
 1422SOL    HW3 5687   3.871   3.916   2.357  0.4352 -0.6444 -0.7717
 1422SOL    MW4 5688   3.798   3.890   2.396  0.6122  0.0930  0.0532
 1423SOL     OW 5689   3.580   3.993   2.211 -0.4300  0.3196 -0.4039
 1423SOL    HW2 5690   3.572   4.080   2.251  0.6328  1.0516 -1.7318
 1423SOL    HW3 5691   3.651   3.951   2.260  0.1326  0.8044 -0.7905
 1423SOL    MW4 5692   3.589   3.999   2.223 -0.2156  0.4801 -0.6301
 1424SOL     OW 5693   3.540   4.240   2.341  0.8243  0.1744  0.0951
 1424SOL    HW2 5694   3.615   4.288   2.306  0.2278  0.7434 -0.4414
 1424SOL    HW3 5695   3.465   4.273   2.290  0.3543 -1.0829 -0.0430
 1424SOL    MW4 5696   3.540   4.251   2.330  0.6836  0.0836  0.0061
 1425SOL     OW 5697   3.777   4.372   2.258 -0.1911  0.1422  0.2461
 1425SOL    HW2 5698   3.852   4.316   2.279 -0.9559 -1.0128 -0.0742
 1425SOL    HW3 5699   3.789   4.449   2.313  0.2767 -0.8281  1.5345
 1425SOL    MW4 5700   3.789   4.374   2.268 -0.2303 -0.1382  0.3738
 1426SOL     OW 5701   4.244   4.659   2.390 -0.0883 -0.2919 -0.1981
 1426SOL    HW2 5702   4.253   4.656   2.485 -0.6504 -0.7793 -0.1614
 1426SOL    HW3 5703   4.319   4.712   2.361  0.5879 -0.8797  0.4394
 1426SOL    MW4 5704   4.255   4.666   2.399 -0.0733 -0.4337 -0.1091
 1427SOL     OW 5705   4.014   0.104   2.292 -0.1515 -0.1646  0.1564
 1427SOL    HW2 5706   4.034   0.192   2.324 -1.9381  0.8611 -1.4385
 1427SOL    HW3 5707   4.091   0.052   2.316  1.3999  2.0758  0.1948
 1427SOL    MW4 5708   4.027   0.109   2.299 -0.1825  0.2663 -0.0490
 1428SOL     OW 5709   4.061   0.361   2.380  0.1613  0.0663 -0.1984
 1428SOL    HW2 5710   4.131   0.413   2.342  1.0130 -0.2743  0.8881
 1428SOL    HW3 5711   3.981   0.409   2.357  0.9324  1.8995  0.8228
 1428SOL    MW4 5712   4.059   0.374   2.372  0.3754  0.2632  0.0797
 1429SOL     OW 5713   4.263   0.522   2.258  0.6535 -0.0744 -0.1836
 1429SOL    HW2 5714   4.247   0.609   2.296  0.1059  1.2686 -3.2747
 1429SOL    HW3 5715   4.340   0.489   2.304  0.7151  1.9561  1.2270
 1429SOL    MW4 5716   4.271   0.529   2.269  0.5894  0.3707 -0.4053
 1430SOL     OW 5717   4.271   0.759   2.379 -0.0600 -0.5461 -0.2289
 1430SOL    HW2 5718   4.186   0.796   2.357  0.0747  0.8707  1.5493
 1430SOL    HW3 5719   4.334   0.815   2.334  0.0505  0.1700  0.8012
 1430SOL    MW4 5720   4.268   0.772   2.370 -0.0277 -0.2647  0.1416
 1431SOL     OW 5721   4.025   0.875   2.282  0.6898  0.2469  0.3440
 1431SOL    HW2 5722   4.019   0.966   2.314 -0.7716 -0.0043  0.8391
 1431SOL    HW3 5723   4.045   0.884   2.189  1.7871  1.0585  0.6464
 1431SOL    MW4 5724   4.027   0.888   2.274  0.6417  0.3208  0.4492
 1432SOL     OW 5725   4.047   1.151   2.369 -0.2326  0.0072  0.1869
 1432SOL    HW2 5726   4.031   1.127   2.460 -1.5293 -1.1965 -0.3298
 1432SOL    HW3 5727   3.972   1.204   2.344  0.0824  0.2744 -0.1929
 1432SOL    MW4 5728   4.035   1.155   2.377 -0.3621 -0.1163  0.0686
 1433SOL     OW 5729   4.273   1.273   2.258  0.7353  0.3002 -0.3548
 1433SOL    HW2 5730   4.192   1.232   2.288  1.0614 -0.8073 -0.9478
 1433SOL    HW3 5731   4.342   1.229   2.307  1.0351  0.6656 -0.4498
 1433SOL    MW4 5732   4.271   1.262   2.268  0.8178  0.2023 -0.4456
 1434SOL     OW 5733   4.278   1.533   2.358 -0.0748  0.5990  0.5197
 1434SOL    HW2 5734   4.277   1.443   2.325 -2.8920  0.7046  0.2517
 1434SOL    HW3 5735   4.346   1.576   2.307 -0.4866 -0.7094 -1.1853
 1434SOL    MW4 5736   4.287   1.527   2.347 -0.5008  0.4403  0.2594
 1435SOL     OW 5737   4.062   1.657   2.266  0.0927 -0.0408  0.2682
 1435SOL    HW2 5738   4.140   1.608   2.292 -0.5142 -0.5704  1.1077
 1435SOL    HW3 5739   3.991   1.618   2.316 -0.7243  0.4178 -0.5201
 1435SOL    MW4 5740   4.063   1.646   2.276 -0.0952 -0.0502  0.2749
 1436SOL     OW 5741   4.055   1.918   2.335 -0.2245 -0.0872  0.3059
 1436SOL    HW2 5742   4.025   1.909   2.425 -1.0185 -1.5337 -0.0793
 1436SOL    HW3 5743   4.053   1.828   2.301  1.2694  0.2716 -0.7652
 1436SOL    MW4 5744   4.051   1.905   2.342 -0.1321 -0.2307  0.1138
 1437SOL     OW 5745   4.296   2.054   2.256 -0.0620 -0.1038 -0.0697
 1437SOL    HW2 5746   4.279   2.144   2.284 -0.9172  0.2955 -1.8550
 1437SOL    HW3 5747   4.217   2.006   2.281 -1.0661  0.3689 -2.2480
 1437SOL    MW4 5748   4.284   2.060   2.263 -0.3073  0.0112 -0.5927
 1438SOL     OW 5749   4.267   2.299   2.354 -0.2728 -0.1096 -0.3259
 1438SOL    HW2 5750   4.340   2.347   2.314 -0.0488  0.4473  0.7272
 1438SOL    HW3 5751   4.189   2.343   2.320 -0.0873  0.1818 -0.3809
 1438SOL    MW4 5752   4.267   2.311   2.344 -0.2188  0.0024 -0.1942
 1439SOL     OW 5753   4.015   2.421   2.284 -0.4879  0.2585  0.0733
 1439SOL    HW2 5754   4.010   2.506   2.327  0.6030 -0.2358  1.2183
 1439SOL    HW3 5755   3.943   2.371   2.321 -1.4077  0.8112 -0.9319
 1439SOL    MW4 5756   4.005   2.426   2.294 -0.4653  0.2662  0.0918
 1440SOL     OW 5757   4.022   2.694   2.363  0.0750  0.6070 -0.1394
 1440SOL    HW2 5758   4.010   2.698   2.458  0.9439 -0.6252  0.0293
 1440SOL    HW3 5759   3.946   2.741   2.328 -0.4303  0.7884  1.1565
 1440SOL    MW4 5760   4.010   2.701   2.371  0.1230  0.4684  0.0538
 1441SOL     OW 5761   4.253   2.841   2.290 -0.1248 -0.4678  0.0272
 1441SOL    HW2 5762   4.177   2.798   2.328 -0.4103 -0.5525 -0.6215
 1441SOL    HW3 5763   4.325   2.780   2.304 -0.6929 -1.5518 -1.6239
 1441SOL    MW4 5764   4.253   2.827   2.297 -0.2375 -0.6220 -0.2762
 1442SOL     OW 5765   4.263   3.103   2.381 -0.1061  0.0647 -0.1375
 1442SOL    HW2 5766   4.263   3.016   2.340 -0.7966 -1.2522  2.5647
 1442SOL    HW3 5767   4.343   3.145   2.349  1.2638 -2.3062  0.0829
 1442SOL    MW4 5768   4.273   3.097   2.371 -0.0164 -0.4219  0.2481
 1443SOL     OW 5769   4.042   3.242   2.254  0.4862  0.2785  0.3893
 1443SOL    HW2 5770   4.042   3.330   2.291  1.8304  0.4035  0.1160
 1443SOL    HW3 5771   4.112   3.196   2.300  0.3184 -0.4084 -0.0274
 1443SOL    MW4 5772   4.051   3.247   2.265  0.6414  0.2044  0.2983
 1444SOL     OW 5773   4.034   3.485   2.359 -0.4733 -0.1524 -0.0133
 1444SOL    HW2 5774   4.114   3.530   2.333 -0.0905 -1.2666 -0.7691
 1444SOL    HW3 5775   3.963   3.537   2.320 -0.0736  0.1955 -0.2772
 1444SOL    MW4 5776   4.035   3.498   2.351 -0.3700 -0.2535 -0.1478
 1445SOL     OW 5777   4.271   3.578   2.241  0.2931  0.0021 -0.3995
 1445SOL    HW2 5778   4.274   3.666   2.279 -0.9538 -0.4822  0.8523
 1445SOL    HW3 5779   4.255   3.592   2.148  0.8782  1.1179 -0.3365
 1445SOL    MW4 5780   4.270   3.591   2.234  0.2058  0.0854 -0.2260
 1446SOL     OW 5781   4.267   3.847   2.346  0.6775  0.4252 -0.1550
 1446SOL    HW2 5782   4.239   3.872   2.434 -1.5865  2.5222 -1.3940
 1446SOL    HW3 5783   4.344   3.902   2.329  1.9592 -0.9592  0.9646
 1446SOL    MW4 5784   4.274   3.858   2.355  0.5479  0.5192 -0.1707
 1447SOL     OW 5785   4.024   3.981   2.273  0.6228  0.0336 -0.1281
 1447SOL    HW2 5786   4.103   3.928   2.286  0.8231  0.3462 -0.0435
 1447SOL    HW3 5787   4.010   3.980   2.178  1.2583  0.7148 -0.2442
 1447SOL    MW4 5788   4.033   3.974   2.262  0.7331  0.1647 -0.1323
 1448SOL     OW 5789   4.000   4.247   2.360 -0.5693 -0.0668 -0.3839
 1448SOL    HW2 5790   4.068   4.290   2.308  0.7059  0.2978  1.5476
 1448SOL    HW3 5791   4.009   4.154   2.337  0.0940  0.0628 -0.6716
 1448SOL    MW4 5792   4.010   4.240   2.350 -0.3135 -0.0016 -0.1671
 1449SOL     OW 5793   4.220   4.398   2.245 -0.1939  0.3028  0.4281
 1449SOL    HW2 5794   4.219   4.484   2.288  1.0508  0.4485  0.1820
 1449SOL    HW3 5795   4.307   4.363   2.266 -1.2755 -1.5955  1.9124
 1449SOL    MW4 5796   4.231   4.405   2.254 -0.1724  0.0716  0.5915
 1450SOL     OW 5797   0.241   4.615   2.650 -0.0256 -0.2268 -0.5539
 1450SOL    HW2 5798   0.242   4.532   2.698 -0.5835 -0.4209 -0.8682
 1450SOL    HW3 5799   0.172   4.666   2.693  1.4560  0.7406  0.7297
 1450SOL    MW4 5800   0.232   4.611   2.662  0.0962 -0.1247 -0.4260
 1451SOL     OW 5801   0.013   0.086   2.730 -0.3638 -0.1012 -0.1152
 1451SOL    HW2 5802   0.008   0.094   2.825 -0.6470 -0.4448 -0.0975
 1451SOL    HW3 5803   0.007   0.175   2.698  3.8641  0.4431  0.3497
 1451SOL    MW4 5804   0.012   0.099   2.738  0.1567 -0.0747 -0.0515
 1452SOL     OW 5805   4.437   0.355   2.649  0.0732 -0.3996  0.3077
 1452SOL    HW2 5806   4.515   0.389   2.691  0.2548 -0.1500 -0.2284
 1452SOL    HW3 5807   4.449   0.374   2.556  0.2780 -2.0926 -0.0292
 1452SOL    MW4 5808   4.449   0.362   2.642  0.1242 -0.5900  0.1925
 1453SOL     OW 5809   0.196   0.461   2.735  0.0400 -0.1620  0.7254
 1453SOL    HW2 5810   0.203   0.467   2.830  0.1268 -1.0257  0.7727
 1453SOL    HW3 5811   0.278   0.422   2.706  0.2951  0.7296  0.2299
 1453SOL    MW4 5812   0.207   0.457   2.744  0.0851 -0.1583  0.6663
 1454SOL     OW 5813   0.197   0.730   2.642  0.0875 -0.3438 -0.0570
 1454SOL    HW2 5814   0.281   0.767   2.665 -1.0127  0.7884  2.3067
 1454SOL    HW3 5815   0.212   0.635   2.642  1.0476 -0.2106  1.6968
 1454SOL    MW4 5816   0.210   0.722   2.645  0.0690 -0.1769  0.4863
 1455SOL     OW 5817   4.474   0.870   2.785 -0.4037  0.2329  0.0668
 1455SOL    HW2 5818   4.392   0.832   2.755 -0.7708  0.9150  0.2151
 1455SOL    HW3 5819   4.539   0.802   2.767 -0.9623 -0.2234 -0.2472
 1455SOL    MW4 5820   4.472   0.856   2.778 -0.5258  0.2627  0.0450
 1456SOL     OW 5821   4.464   1.114   2.665 -0.4184 -0.4938  0.2824
 1456SOL    HW2 5822   4.541   1.157   2.700 -1.1510  0.6343  0.5343
 1456SOL    HW3 5823   4.464   1.027   2.707  0.5199 -0.3799  0.5252
 1456SOL    MW4 5824   4.474   1.108   2.675 -0.3912 -0.3299  0.3476
 1457SOL     OW 5825   0.202   1.271   2.743 -0.1501  0.7083 -0.2308
 1457SOL    HW2 5826   0.276   1.219   2.710 -1.9326 -1.2419 -1.2289
 1457SOL    HW3 5827   0.204   1.350   2.691  0.2666 -0.0335 -1.3580
 1457SOL    MW4 5828   0.212   1.274   2.732 -0.3303  0.3531 -0.5112
 1458SOL     OW 5829   0.209   1.537   2.602 -0.3108  0.3883 -0.0379
 1458SOL    HW2 5830   0.291   1.572   2.634  0.3279  1.1952 -2.4637
 1458SOL    HW3 5831   0.142   1.599   2.632  0.2838  1.2250 -0.4494
 1458SOL    MW4 5832   0.211   1.550   2.610 -0.1481  0.6051 -0.4123
 1459SOL     OW 5833   4.475   1.678   2.722 -0.1887  0.4281  0.0251
 1459SOL    HW2 5834   4.508   1.684   2.811  0.8774 -0.5381 -0.3022
 1459SOL    HW3 5835   4.493   1.764   2.683  1.4777  0.0788  0.0059
 1459SOL    MW4 5836   4.481   1.690   2.729  0.1718  0.2545 -0.0206
 1460SOL     OW 5837   0.024   1.930   2.621  0.2325  0.2501  0.1251
 1460SOL    HW2 5838   0.101   1.973   2.659 -0.1652  0.3697  0.8040
 1460SOL    HW3 5839   0.040   1.932   2.526  1.5257 -0.6055  0.3142
 1460SOL    MW4 5840   0.036   1.936   2.613  0.3506  0.1530  0.2396
 1461SOL     OW 5841   0.251   2.051   2.734 -0.0671 -0.2735 -0.6633
 1461SOL    HW2 5842   0.331   2.010   2.702  0.2679 -0.6308  0.5981
 1461SOL    HW3 5843   0.253   2.139   2.696 -0.2843 -1.0700 -2.5643
 1461SOL    MW4 5844   0.262   2.057   2.725 -0.0515 -0.4258 -0.7477
 1462SOL     OW 5845   0.246   2.297   2.613  0.1261 -0.0734 -0.4320
 1462SOL    HW2 5846   0.316   2.342   2.660  0.3413 -0.7355 -0.1149
 1462SOL    HW3 5847   0.167   2.347   2.634  0.1952 -0.4439  0.7596
 1462SOL    MW4 5848   0.245   2.310   2.622  0.1636 -0.2097 -0.2330
 1463SOL     OW 5849   0.005   2.426   2.706  0.1787 -0.1503  0.0713
 1463SOL    HW2 5850  -0.009   2.437   2.800  0.4831 -0.8580  0.2041
 1463SOL    HW3 5851  -0.072   2.377   2.676 -0.6124  1.2991 -0.3088
 1463SOL    MW4 5852  -0.007   2.421   2.714  0.1145 -0.0524  0.0387
 1464SOL     OW 5853   0.004   2.709   2.633  0.1798  0.6163  0.1297
 1464SOL    HW2 5854  -0.068   2.757   2.674  0.5667  2.0313 -0.8191
 1464SOL    HW3 5855  -0.005   2.619   2.667 -1.5221  0.9615  0.6560
 1464SOL    MW4 5856  -0.007   2.703   2.643  0.0063  0.8485  0.0740
 1465SOL     OW 5857   0.229   2.846   2.731 -0.2067 -0.1539 -0.5072
 1465SOL    HW2 5858   0.229   2.937   2.702 -0.9279 -0.0955 -0.3206
 1465SOL    HW3 5859   0.150   2.808   2.691 -0.4973 -0.4146  0.3102
 1465SOL    MW4 5860   0.218   2.853   2.722 -0.3402 -0.1806 -0.3747
 1466SOL     OW 5861   0.226   3.099   2.649 -0.4501 -0.2802 -0.0685
 1466SOL    HW2 5862   0.312   3.133   2.673  0.0384 -0.8988 -0.8900
 1466SOL    HW3 5863   0.232   3.087   2.554 -1.6862  0.3479 -0.2290
 1466SOL    MW4 5864   0.238   3.102   2.640 -0.5488 -0.2789 -0.1981
 1467SOL     OW 5865   4.470   3.233   2.742  0.2153  0.0107 -0.0905
 1467SOL    HW2 5866   4.387   3.204   2.705 -0.5659  2.0281  0.0386
 1467SOL    HW3 5867   4.535   3.172   2.706 -0.8873  0.2804 -2.6154
 1467SOL    MW4 5868   4.468   3.221   2.732 -0.0333  0.3125 -0.4066
 1468SOL     OW 5869   4.470   3.496   2.626 -0.2489  0.1868  0.4925
 1468SOL    HW2 5870   4.552   3.535   2.657 -0.4701  0.6780  0.4748
 1468SOL    HW3 5871   4.470   3.407   2.662  1.0646 -0.3840 -0.8789
 1468SOL    MW4 5872   4.481   3.489   2.635 -0.1048  0.1763  0.3093
 1469SOL     OW 5873   0.248   3.608   2.757  0.6712  0.1633  0.5884
 1469SOL    HW2 5874   0.251   3.598   2.852  0.6611  0.5290  0.6255
 1469SOL    HW3 5875   0.320   3.553   2.725  1.1960  0.6982  0.8553
 1469SOL    MW4 5876   0.258   3.599   2.765  0.7391  0.2821  0.6285
 1470SOL     OW 5877   0.229   3.882   2.624  0.1059  0.4971  0.7432
 1470SOL    HW2 5878   0.213   3.794   2.656 -1.8563  0.5013 -0.1087
 1470SOL    HW3 5879   0.247   3.871   2.531 -1.6687  1.0954  0.3073
 1470SOL    MW4 5880   0.229   3.869   2.616 -0.3871  0.5766  0.5733
 1471SOL     OW 5881   4.488   4.017   2.735 -0.0607  0.4149 -0.0100
 1471SOL    HW2 5882   4.472   4.106   2.702 -2.2205  0.2093  0.4174
 1471SOL    HW3 5883   4.553   3.981   2.675  0.1580  1.9699 -0.7443
 1471SOL    MW4 5884   4.494   4.024   2.723 -0.3168  0.5929 -0.0505
 1472SOL     OW 5885   4.458   4.271   2.630  0.0004 -0.7707 -0.0710
 1472SOL    HW2 5886   4.391   4.322   2.675  0.1963 -0.7868  0.2406
 1472SOL    HW3 5887   4.541   4.305   2.664  0.1330 -1.2110  0.0487
 1472SOL    MW4 5888   4.460   4.282   2.641  0.0438 -0.8309 -0.0141
 1473SOL     OW 5889   0.190   4.364   2.761 -0.3714  0.1041  0.0888
 1473SOL    HW2 5890   0.200   4.383   2.854 -1.4572 -0.4697  0.3364
 1473SOL    HW3 5891   0.278   4.341   2.731  0.3092  2.0241  0.5650
 1473SOL    MW4 5892   0.203   4.363   2.770 -0.4249  0.2817  0.1843
 1474SOL     OW 5893   0.732   0.021   2.660  0.0195  0.1996 -0.4275
 1474SOL    HW2 5894   0.788   0.092   2.693 -0.6117 -0.0616  1.2762
 1474SOL    HW3 5895   0.643   0.052   2.674 -0.2595 -0.3105 -1.0658
 1474SOL    MW4 5896   0.728   0.034   2.666 -0.1006  0.0978 -0.2869
 1475SOL     OW 5897   0.462   0.105   2.725 -0.0725  0.3664  0.2606
 1475SOL    HW2 5898   0.450   0.128   2.818  0.6937 -0.2643  0.5200
 1475SOL    HW3 5899   0.386   0.051   2.704  0.9034 -1.4085  1.1675
 1475SOL    MW4 5900   0.450   0.101   2.735  0.1573  0.0490  0.4144
 1476SOL     OW 5901   0.447   0.361   2.637 -0.1085 -0.2301 -0.1118
 1476SOL    HW2 5902   0.526   0.398   2.677 -0.7610  1.0817 -0.0098
 1476SOL    HW3 5903   0.452   0.267   2.656  0.6752  0.0630  1.1699
 1476SOL    MW4 5904   0.458   0.354   2.645 -0.0912 -0.0184  0.0708
 1477SOL     OW 5905   0.649   0.509   2.761  0.1511  0.5542  0.2935
 1477SOL    HW2 5906   0.657   0.504   2.856  1.7128 -2.0726  0.0862
 1477SOL    HW3 5907   0.732   0.473   2.728 -1.5635 -1.4801 -2.0254
 1477SOL    MW4 5908   0.661   0.503   2.769  0.1309 -0.0608 -0.0398
 1478SOL     OW 5909   0.654   0.739   2.619  0.1884 -0.0697 -0.5195
 1478SOL    HW2 5910   0.728   0.791   2.651  1.7622 -1.4950 -1.7854
 1478SOL    HW3 5911   0.655   0.661   2.674  0.1537 -0.5007 -1.1407
 1478SOL    MW4 5912   0.664   0.736   2.631  0.3915 -0.3146 -0.7685
 1479SOL     OW 5913   0.440   0.872   2.724 -0.0439  0.1008 -0.1742
 1479SOL    HW2 5914   0.438   0.964   2.699  0.5495  0.3447  0.6457
 1479SOL    HW3 5915   0.515   0.835   2.677 -0.1518  0.0898 -0.3357
 1479SOL    MW4 5916   0.450   0.879   2.715  0.0201  0.1315 -0.0873
 1480SOL     OW 5917   0.436   1.158   2.663  0.0738  0.0567  0.3064
 1480SOL    HW2 5918   0.515   1.196   2.703  0.2946  1.2750 -1.2234
 1480SOL    HW3 5919   0.460   1.144   2.572 -1.5974  0.8288 -0.2730
 1480SOL    MW4 5920   0.450   1.161   2.656 -0.1175  0.3193  0.0281
 1481SOL     OW 5921   0.667   1.250   2.781  0.2359  0.0638 -0.0989
 1481SOL    HW2 5922   0.695   1.242   2.873 -1.1987 -0.1897  0.3254
 1481SOL    HW3 5923   0.735   1.203   2.732  1.3081  0.6678  0.7750
 1481SOL    MW4 5924   0.680   1.243   2.787  0.1881  0.1101  0.0723
 1482SOL     OW 5925   0.673   1.519   2.674  0.0183  0.1217 -0.3041
 1482SOL    HW2 5926   0.593   1.562   2.705 -0.5420 -1.0675 -0.0730
 1482SOL    HW3 5927   0.668   1.430   2.710  0.6605 -0.4547 -1.6012
 1482SOL    MW4 5928   0.662   1.513   2.683  0.0291 -0.1113 -0.4447
 1483SOL     OW 5929   0.437   1.659   2.732  0.2644 -0.0689  0.2188
 1483SOL    HW2 5930   0.468   1.662   2.823 -0.2738  0.5024  0.3908
 1483SOL    HW3 5931   0.452   1.747   2.699  1.5518 -0.6001 -0.6233
 1483SOL    MW4 5932   0.443   1.671   2.740  0.3632 -0.0636  0.1304
 1484SOL     OW 5933   0.487   1.925   2.624  0.1715  0.1834  0.2901
 1484SOL    HW2 5934   0.576   1.957   2.637  0.3275  0.1824 -0.7211
 1484SOL    HW3 5935   0.476   1.925   2.528 -0.6739 -0.4630  0.3890
 1484SOL    MW4 5936   0.497   1.929   2.613  0.0805  0.0980  0.1697
 1485SOL     OW 5937   0.733   2.058   2.695 -0.2472  0.1170 -0.3095
 1485SOL    HW2 5938   0.715   2.045   2.788  0.2595  0.7205 -0.1272
 1485SOL    HW3 5939   0.808   2.001   2.677 -0.2823  0.0758 -0.3242
 1485SOL    MW4 5940   0.740   2.049   2.705 -0.1850  0.1912 -0.2874
 1486SOL     OW 5941   0.689   2.317   2.652  0.2421 -0.0056  0.5240
 1486SOL    HW2 5942   0.776   2.351   2.674  0.4044  0.1606 -0.3536
 1486SOL    HW3 5943   0.696   2.223   2.664  0.3769  0.0691  1.0227
 1486SOL    MW4 5944   0.701   2.309   2.656  0.2813  0.0262  0.4740
 1487SOL     OW 5945   0.450   2.443   2.731  0.2331  0.2963  0.0390
 1487SOL    HW2 5946   0.458   2.534   2.704 -0.9600  0.8343  1.4465
 1487SOL    HW3 5947   0.529   2.401   2.697  0.0530  1.5035 -1.9407
 1487SOL    MW4 5948   0.462   2.449   2.723  0.0520  0.5266 -0.0365
 1488SOL     OW 5949   0.440   2.697   2.639 -0.0105 -0.0988  0.3253
 1488SOL    HW2 5950   0.506   2.731   2.699 -1.0423 -1.0066  2.0208
 1488SOL    HW3 5951   0.361   2.749   2.658 -0.4827 -0.7164  0.0905
 1488SOL    MW4 5952   0.438   2.708   2.649 -0.2089 -0.3001  0.5180
 1489SOL     OW 5953   0.658   2.785   2.771 -0.4193 -0.6571 -0.0324
 1489SOL    HW2 5954   0.654   2.803   2.865 -0.5302  1.4241 -0.4151
 1489SOL    HW3 5955   0.667   2.872   2.731 -1.0037 -1.4912 -1.9776
 1489SOL    MW4 5956   0.659   2.799   2.779 -0.5110 -0.4926 -0.3395
 1490SOL     OW 5957   0.668   3.013   2.641  0.2711  0.7260  0.6532
 1490SOL    HW2 5958   0.746   3.067   2.657 -0.2499  1.5390  0.4615
 1490SOL    HW3 5959   0.651   3.023   2.548  0.0702  0.3619  0.6513
 1490SOL    MW4 5960   0.676   3.021   2.631  0.1758  0.7853  0.6277
 1491SOL     OW 5961   0.468   3.186   2.760  0.5249 -0.2692  0.1558
 1491SOL    HW2 5962   0.449   3.182   2.854  3.7549  1.7050  0.9787
 1491SOL    HW3 5963   0.536   3.121   2.746 -0.6083 -1.2208 -1.0353
 1491SOL    MW4 5964   0.475   3.177   2.770  0.8015 -0.1343  0.1073
 1492SOL     OW 5965   0.467   3.464   2.654  0.3225 -0.0435  0.4474
 1492SOL    HW2 5966   0.489   3.376   2.684  0.6521  0.2525  1.0658
 1492SOL    HW3 5967   0.483   3.462   2.560  2.0953 -0.0977  0.7482
 1492SOL    MW4 5968   0.472   3.452   2.645  0.5999 -0.0116  0.5687
 1493SOL     OW 5969   0.681   3.638   2.744  0.1398 -0.0083  0.0107
 1493SOL    HW2 5970   0.697   3.632   2.839  0.7083 -1.3074 -0.1549
 1493SOL    HW3 5971   0.597   3.594   2.731  0.3721 -0.4041 -0.1658
 1493SOL    MW4 5972   0.672   3.632   2.755  0.2455 -0.2319 -0.0345
 1494SOL     OW 5973   0.671   3.905   2.663  0.2712 -0.4373  0.7730
 1494SOL    HW2 5974   0.581   3.936   2.677  0.0031 -1.2420  0.8622
 1494SOL    HW3 5975   0.671   3.815   2.697  1.0537 -0.5128  0.5777
 1494SOL    MW4 5976   0.659   3.897   2.669  0.3391 -0.5534  0.7590
 1495SOL     OW 5977   0.446   4.021   2.729  0.5073  0.4317 -0.0801
 1495SOL    HW2 5978   0.435   4.115   2.716 -2.3356  0.0265 -0.7623
 1495SOL    HW3 5979   0.371   3.981   2.685  1.4998 -2.1510  0.4835
 1495SOL    MW4 5980   0.435   4.028   2.721  0.2632  0.0375 -0.0957
 1496SOL     OW 5981   0.431   4.295   2.658 -0.1717 -0.7926  0.2542
 1496SOL    HW2 5982   0.507   4.348   2.685 -1.0657  0.7758 -0.2230
 1496SOL    HW3 5983   0.437   4.294   2.562 -1.3087  0.2211  0.1579
 1496SOL    MW4 5984   0.442   4.302   2.649 -0.4397 -0.4519  0.1785
 1497SOL     OW 5985   0.691   4.427   2.749  0.4275  0.0110 -0.1714
 1497SOL    HW2 5986   0.760   4.365   2.723  1.2707  1.3885 -1.2591
 1497SOL    HW3 5987   0.725   4.513   2.725  0.1934  1.1575  3.2899
 1497SOL    MW4 5988   0.705   4.430   2.742  0.5079  0.3440  0.1418
 1498SOL     OW 5989   1.099   4.605   2.663  0.0548 -0.5572 -0.1052
 1498SOL    HW2 5990   1.182   4.652   2.669 -0.6283  0.7154 -0.5911
 1498SOL    HW3 5991   1.123   4.513   2.681  1.2263  0.1007  1.9488
 1498SOL    MW4 5992   1.113   4.599   2.666  0.1192 -0.3025  0.1017
 1499SOL     OW 5993   0.945   0.157   2.768  0.2346 -0.2787  0.2991
 1499SOL    HW2 5994   0.926   0.115   2.851 -0.3871 -0.3510  0.1197
 1499SOL    HW3 5995   1.004   0.096   2.723 -0.5145 -0.8776  0.1172
 1499SOL    MW4 5996   0.950   0.143   2.773  0.0537 -0.3673  0.2514
 1500SOL     OW 5997   0.877   0.411   2.663 -0.0160  0.0497  0.0526
 1500SOL    HW2 5998   0.911   0.324   2.683 -1.3615 -0.5024 -0.0512
 1500SOL    HW3 5999   0.880   0.418   2.568 -0.3908 -0.0735  0.0330
 1500SOL    MW4 6000   0.882   0.401   2.653 -0.2430 -0.0394  0.0363
 1501SOL     OW 6001   1.137   0.513   2.727  0.3009  0.5883 -0.3838
 1501SOL    HW2 6002   1.136   0.604   2.698 -2.2331  0.4717 -0.8144
 1501SOL    HW3 6003   1.049   0.481   2.707  0.3750 -1.2438  1.9775
 1501SOL    MW4 6004   1.125   0.521   2.721 -0.0237  0.3312 -0.1291
 1502SOL     OW 6005   1.125   0.767   2.605  0.3487 -0.6164  0.3589
 1502SOL    HW2 6006   1.209   0.794   2.641  1.1286 -0.8977 -1.1871
 1502SOL    HW3 6007   1.139   0.766   2.510 -0.8013 -2.6162  0.1754
 1502SOL    MW4 6008   1.138   0.770   2.597  0.2999 -0.9173  0.1307
 1503SOL     OW 6009   0.888   0.845   2.717 -0.1174 -0.3288 -0.5236
 1503SOL    HW2 6010   0.904   0.838   2.811 -0.8420  0.0429 -0.3667
 1503SOL    HW3 6011   0.971   0.821   2.676  0.4404  0.2863  0.2316
 1503SOL    MW4 6012   0.901   0.841   2.724 -0.1394 -0.1986 -0.4032
 1504SOL     OW 6013   0.865   1.117   2.638 -0.5516 -0.0806  0.4500
 1504SOL    HW2 6014   0.870   1.028   2.675 -0.2186 -0.7133 -1.0647
 1504SOL    HW3 6015   0.863   1.103   2.543 -0.2497  1.5534  0.1910
 1504SOL    MW4 6016   0.866   1.103   2.630 -0.4679  0.0515  0.2160
 1505SOL     OW 6017   1.127   1.190   2.693  0.2559 -0.7183  0.4743
 1505SOL    HW2 6018   1.137   1.285   2.681 -0.3850 -0.5239  1.4285
 1505SOL    HW3 6019   1.035   1.173   2.671  0.2277 -1.0364  0.8417
 1505SOL    MW4 6020   1.116   1.201   2.688  0.1677 -0.7346  0.6486
 1506SOL     OW 6021   1.154   1.454   2.655  0.0733  0.6682 -0.8533
 1506SOL    HW2 6022   1.076   1.498   2.692  0.0807  0.4949 -0.6309
 1506SOL    HW3 6023   1.139   1.455   2.561 -0.0565  0.9076 -0.8321
 1506SOL    MW4 6024   1.141   1.460   2.648  0.0572  0.6769 -0.8211
 1507SOL     OW 6025   0.923   1.628   2.749 -0.1557 -0.2607  0.2578
 1507SOL    HW2 6026   0.919   1.622   2.844 -1.3519  0.6843  0.2879
 1507SOL    HW3 6027   0.846   1.579   2.719 -1.1109  1.4190 -0.1027
 1507SOL    MW4 6028   0.912   1.621   2.758 -0.4396  0.0856  0.2142
 1508SOL     OW 6029   0.932   1.887   2.620 -0.0014 -0.5378 -0.1703
 1508SOL    HW2 6030   1.018   1.921   2.645  0.6672 -0.2917 -2.6338
 1508SOL    HW3 6031   0.929   1.799   2.659  0.2852  0.4222  2.0792
 1508SOL    MW4 6032   0.943   1.880   2.628  0.1246 -0.3787 -0.1986
 1509SOL     OW 6033   1.144   2.048   2.703 -0.2317 -0.5555  0.0743
 1509SOL    HW2 6034   1.226   1.999   2.701  0.4713  0.6172 -0.3002
 1509SOL    HW3 6035   1.166   2.134   2.667 -1.3409  0.2115  1.1723
 1509SOL    MW4 6036   1.158   2.053   2.698 -0.2853 -0.2996  0.1697
 1510SOL     OW 6037   1.155   2.300   2.583 -0.0537  0.3677 -0.6956
 1510SOL    HW2 6038   1.237   2.334   2.619 -0.8019  1.8329 -0.3394
 1510SOL    HW3 6039   1.163   2.315   2.489 -0.5918  2.0235 -0.4862
 1510SOL    MW4 6040   1.167   2.306   2.575 -0.2234  0.7795 -0.6210
 1511SOL     OW 6041   0.942   2.424   2.723  0.1860 -0.2465 -0.0844
 1511SOL    HW2 6042   0.941   2.515   2.692 -1.3043 -0.0225  0.5786
 1511SOL    HW3 6043   1.013   2.383   2.673  1.8865  1.6413  0.6881
 1511SOL    MW4 6044   0.951   2.431   2.712  0.2137  0.0321  0.1050
 1512SOL     OW 6045   0.890   2.686   2.661 -0.2048  0.2632  0.1010
 1512SOL    HW2 6046   0.950   2.741   2.711 -0.4910  0.2129  0.4940
 1512SOL    HW3 6047   0.804   2.703   2.698 -0.5624  0.9903 -1.0322
 1512SOL    MW4 6048   0.887   2.695   2.672 -0.2897  0.3525  0.0033
 1513SOL     OW 6049   1.107   2.827   2.743 -0.1599  0.0953 -0.1808
 1513SOL    HW2 6050   1.115   2.816   2.838  0.2197 -2.1461 -0.4496
 1513SOL    HW3 6051   1.185   2.786   2.707 -1.4339 -1.1882 -1.5796
 1513SOL    MW4 6052   1.118   2.821   2.751 -0.2779 -0.3698 -0.4008
 1514SOL     OW 6053   1.133   3.088   2.639 -0.2872  0.2411  0.0556
 1514SOL    HW2 6054   1.124   2.996   2.664 -2.5526  0.8421  1.6795
 1514SOL    HW3 6055   1.125   3.088   2.544  0.7376 -1.3309 -0.0520
 1514SOL    MW4 6056   1.131   3.076   2.630 -0.4509  0.1130  0.2556
 1515SOL     OW 6057   0.883   3.180   2.734  0.0799  0.0611 -0.5638
 1515SOL    HW2 6058   0.861   3.267   2.701  0.7659  0.5440  0.2583
 1515SOL    HW3 6059   0.973   3.165   2.706  0.8013  0.6289  1.3955
 1515SOL    MW4 6060   0.892   3.189   2.726  0.2656  0.1997 -0.1968
 1516SOL     OW 6061   0.887   3.462   2.646  0.0000  0.0000  0.2360
 1516SOL    HW2 6062   0.961   3.509   2.687  0.0000  0.0000  0.2500
 1516SOL    HW3 6063   0.810   3.512   2.674  0.0000  0.0000  0.2319
 1516SOL    MW4 6064   0.887   3.475   2.655  0.0000  0.0000  0.2373
 1517SOL     OW 6065   1.102   3.599   2.763  0.0000  0.0000  0.2850
 1517SOL    HW2 6066   1.101   3.626   2.855  0.0000  0.0000  0.2854
 1517SOL    HW3 6067   1.100   3.681   2.715  0.0000  0.0000  0.2867
 1517SOL    MW4 6068   1.102   3.613   2.769  0.0000  0.0000  0.2853
 1518SOL     OW 6069   1.098   3.851   2.633  0.0000  0.0000 -0.7514
 1518SOL    HW2 6070   1.178   3.889   2.670  0.0000  0.0000 -0.7583
 1518SOL    HW3 6071   1.110   3.859   2.538  0.0000  0.0000 -0.7526
 1518SOL    MW4 6072   1.110   3.857   2.625  0.0000  0.0000 -0.7525
 1519SOL     OW 6073   0.893   4.008   2.765  0.0000  0.0000  0.0855
 1519SOL    HW2 6074   0.957   3.963   2.711  0.0000  0.0000  0.1055
 1519SOL    HW3 6075   0.809   3.969   2.739  0.0000  0.0000  0.0577
 1519SOL    MW4 6076   0.890   3.997   2.755  0.0000  0.0000  0.0845
 1520SOL     OW 6077   0.888   4.266   2.649  0.0000  0.0000 -0.0694
 1520SOL    HW2 6078   0.892   4.173   2.674  0.0000  0.0000 -0.0721
 1520SOL    HW3 6079   0.884   4.265   2.554  0.0000  0.0000 -0.0696
 1520SOL    MW4 6080   0.888   4.254   2.640  0.0000  0.0000 -0.0698
 1521SOL     OW 6081   1.144   4.351   2.733  0.0000  0.0000  0.1008
 1521SOL    HW2 6082   1.137   4.378   2.825  0.0000  0.0000  0.1014
 1521SOL    HW3 6083   1.055   4.327   2.708  0.0000  0.0000  0.0870
 1521SOL    MW4 6084   1.131   4.351   2.742  0.0000  0.0000  0.0990
 1522SOL     OW 6085   1.593   4.643   2.630  0.0000  0.0000  0.3486
 1522SOL    HW2 6086   1.588   4.549   2.646  0.0000  0.0000  0.3497
 1522SOL    HW3 6087   1.581   4.652   2.536  0.0000  0.0000  0.3485
 1522SOL    MW4 6088   1.591   4.632   2.620  0.0000  0.0000  0.3487
 1523SOL     OW 6089   1.351   0.086   2.725  0.0000  0.0000 -0.0668
 1523SOL    HW2 6090   1.350   0.171   2.680  0.0000  0.0000 -0.0564
 1523SOL    HW3 6091   1.437   0.049   2.704  0.0000  0.0000 -0.0959
 1523SOL    MW4 6092   1.362   0.092   2.716  0.0000  0.0000 -0.0693
 1524SOL     OW 6093   1.360   0.344   2.595  0.0000  0.0000 -0.0460
 1524SOL    HW2 6094   1.437   0.387   2.632  0.0000  0.0000 -0.0352
 1524SOL    HW3 6095   1.286   0.396   2.628  0.0000  0.0000 -0.0602
 1524SOL    MW4 6096   1.360   0.357   2.604  0.0000  0.0000 -0.0465
 1525SOL     OW 6097   1.571   0.493   2.708 -0.3578 -0.3086  0.3895
 1525SOL    HW2 6098   1.651   0.465   2.664 -0.1807 -1.2335  1.2860
 1525SOL    HW3 6099   1.564   0.586   2.688  1.1086 -0.1520  0.5732
 1525SOL    MW4 6100   1.580   0.501   2.700 -0.1410 -0.4100  0.5320
 1526SOL     OW 6101   1.571   0.750   2.610  0.0145  0.8114 -0.2822
 1526SOL    HW2 6102   1.487   0.789   2.637 -0.6579 -0.2223 -0.8832
 1526SOL    HW3 6103   1.575   0.765   2.516  0.2813  0.4290 -0.3302
 1526SOL    MW4 6104   1.560   0.757   2.601 -0.0390  0.6246 -0.3678
 1527SOL     OW 6105   1.350   0.847   2.729  0.3340  0.5241  0.1077
 1527SOL    HW2 6106   1.354   0.855   2.824 -0.2607  1.3277  0.0676
 1527SOL    HW3 6107   1.357   0.937   2.697  0.6950  0.2445 -0.6165
 1527SOL    MW4 6108   1.351   0.860   2.737  0.3032  0.5932  0.0069
 1528SOL     OW 6109   1.375   1.079   2.592  0.8549  0.0438 -0.0288
 1528SOL    HW2 6110   1.428   1.146   2.636 -0.2386  0.6735  0.3350
 1528SOL    HW3 6111   1.285   1.103   2.612  0.3847 -0.3011 -1.7230
 1528SOL    MW4 6112   1.370   1.091   2.601  0.6486  0.0814 -0.2043
 1529SOL     OW 6113   1.549   1.235   2.719 -0.2372 -0.2092 -0.0135
 1529SOL    HW2 6114   1.574   1.222   2.811  0.2867 -1.4830 -0.3288
 1529SOL    HW3 6115   1.621   1.197   2.669 -0.2641  0.9640 -0.9768
 1529SOL    MW4 6116   1.562   1.228   2.725 -0.1716 -0.2225 -0.1822
 1530SOL     OW 6117   1.606   1.508   2.668 -0.1033 -0.0406  0.3161
 1530SOL    HW2 6118   1.581   1.419   2.693 -1.3342 -0.5329 -2.4784
 1530SOL    HW3 6119   1.602   1.507   2.572  0.6339  2.8175  0.2358
 1530SOL    MW4 6120   1.602   1.496   2.658 -0.1684  0.2715 -0.0632
 1531SOL     OW 6121   1.366   1.632   2.738 -0.4242  0.1016  0.3413
 1531SOL    HW2 6122   1.436   1.575   2.706  0.6246  0.7031  1.5089
 1531SOL    HW3 6123   1.286   1.595   2.701  0.4416 -0.9989 -0.4666
 1531SOL    MW4 6124   1.365   1.619   2.729 -0.1716  0.0358  0.3888
 1532SOL     OW 6125   1.380   1.893   2.637  0.1670  0.1458 -0.2484
 1532SOL    HW2 6126   1.363   1.802   2.660 -0.1585  0.4902  0.9210
 1532SOL    HW3 6127   1.352   1.901   2.546 -3.9302  0.1273  0.8924
 1532SOL    MW4 6128   1.374   1.882   2.628 -0.4165  0.1888  0.0564
 1533SOL     OW 6129   1.565   2.065   2.739 -0.8249  0.4028  0.1779
 1533SOL    HW2 6130   1.647   2.029   2.704 -0.5206  0.0146  1.2849
 1533SOL    HW3 6131   1.497   2.009   2.703 -0.4782 -0.2643  0.5569
 1533SOL    MW4 6132   1.567   2.053   2.730 -0.7390  0.2635  0.3740
 1534SOL     OW 6133   1.607   2.312   2.644  0.1325  0.0461  0.5569
 1534SOL    HW2 6134   1.678   2.359   2.688  0.8291  0.0819 -0.5926
 1534SOL    HW3 6135   1.605   2.227   2.686  0.4383  0.2680  1.0250
 1534SOL    MW4 6136   1.616   2.307   2.655  0.2648  0.0801  0.4670
 1535SOL     OW 6137   1.380   2.439   2.720 -0.1272  0.2672 -0.1621
 1535SOL    HW2 6138   1.384   2.524   2.676  0.9056  1.2682  1.8068
 1535SOL    HW3 6139   1.460   2.394   2.693  0.5567  0.9195  0.7804
 1535SOL    MW4 6140   1.391   2.445   2.711  0.0993  0.4853  0.2220
 1536SOL     OW 6141   1.334   2.709   2.627  0.1643 -0.3447 -0.2981
 1536SOL    HW2 6142   1.414   2.750   2.660 -0.5082 -0.0526  0.9908
 1536SOL    HW3 6143   1.338   2.721   2.532  0.6994  1.3726 -0.0688
 1536SOL    MW4 6144   1.345   2.716   2.618  0.1462 -0.0796 -0.0978
 1537SOL     OW 6145   1.555   2.851   2.705  0.0917 -0.8069 -0.3648
 1537SOL    HW2 6146   1.560   2.859   2.801 -1.3327 -0.5267 -0.3073
 1537SOL    HW3 6147   1.632   2.799   2.682  0.2538 -1.1918  0.9682
 1537SOL    MW4 6148   1.566   2.845   2.715 -0.0749 -0.8207 -0.1813
 1538SOL     OW 6149   1.586   3.121   2.608  0.7606  0.2327  0.0460
 1538SOL    HW2 6150   1.656   3.160   2.662  0.9188 -0.2751  0.2125
 1538SOL    HW3 6151   1.588   3.028   2.631  2.8026 -0.5455 -2.9746
 1538SOL    MW4 6152   1.596   3.114   2.618  1.0509  0.0631 -0.3306
 1539SOL     OW 6153   1.361   3.203   2.741  0.0703  0.1200 -0.1733
 1539SOL    HW2 6154   1.436   3.162   2.699  0.5714 -0.1946  1.0027
 1539SOL    HW3 6155   1.285   3.171   2.691  0.6655 -0.0458 -0.9763
 1539SOL    MW4 6156   1.361   3.193   2.729  0.2150  0.0566 -0.1241
 1540SOL     OW 6157   1.356   3.473   2.686  0.0919 -0.0572  0.6089
 1540SOL    HW2 6158   1.355   3.380   2.708  0.5308 -0.2754 -0.2697
 1540SOL    HW3 6159   1.267   3.504   2.703 -0.8724 -1.3232 -2.0311
 1540SOL    MW4 6160   1.344   3.465   2.691  0.0226 -0.2531  0.1447
 1541SOL     OW 6161   1.594   3.595   2.741  0.4140 -0.3438 -0.2604
 1541SOL    HW2 6162   1.659   3.554   2.683  0.4560 -0.2043 -0.3101
 1541SOL    HW3 6163   1.512   3.551   2.720  0.5652 -0.7922  0.0729
 1541SOL    MW4 6164   1.592   3.583   2.731  0.4395 -0.3846 -0.2230
 1542SOL     OW 6165   1.580   3.854   2.647  0.3396  0.0134  0.2191
 1542SOL    HW2 6166   1.501   3.899   2.678  1.1621  0.7545  1.2930
 1542SOL    HW3 6167   1.570   3.764   2.675  0.1084  0.2213  0.7998
 1542SOL    MW4 6168   1.568   3.848   2.654  0.4176  0.1386  0.4374
 1543SOL     OW 6169   1.335   3.969   2.723 -0.2299  0.3005 -0.5811
 1543SOL    HW2 6170   1.343   3.977   2.818 -0.1359 -1.1324 -0.4581
 1543SOL    HW3 6171   1.336   4.059   2.691 -0.5439  0.8051  0.7991
 1543SOL    MW4 6172   1.336   3.982   2.731 -0.2589  0.1780 -0.3828
 1544SOL     OW 6173   1.343   4.239   2.606  0.4341  0.0190 -0.4839
 1544SOL    HW2 6174   1.261   4.275   2.640  1.3536  1.4500  0.2500
 1544SOL    HW3 6175   1.345   4.266   2.514 -0.4596 -1.0185 -0.8242
 1544SOL    MW4 6176   1.332   4.247   2.598  0.4375  0.0709 -0.4319
 1545SOL     OW 6177   1.559   4.365   2.693  0.2350  0.4463  0.2973
 1545SOL    HW2 6178   1.549   4.363   2.789 -1.3296  0.9725  0.1503
 1545SOL    HW3 6179   1.477   4.330   2.660  1.6523 -1.9360 -0.8354
 1545SOL    MW4 6180   1.547   4.360   2.701  0.2156  0.2014  0.1285
 1546SOL     OW 6181   2.011   4.604   2.613 -0.1647 -0.2459  0.5083
 1546SOL    HW2 6182   2.083   4.649   2.658  1.2755 -1.4845 -0.5037
 1546SOL    HW3 6183   2.030   4.615   2.520 -1.1642 -0.7830  0.2290
 1546SOL    MW4 6184   2.023   4.611   2.607 -0.1066 -0.4802  0.3379
 1547SOL     OW 6185   1.824   0.108   2.704  0.2940  0.7980 -0.5128
 1547SOL    HW2 6186   1.897   0.062   2.664  0.3140  0.8447 -0.5305
 1547SOL    HW3 6187   1.746   0.060   2.675  0.2595  1.2613 -1.1897
 1547SOL    MW4 6188   1.823   0.096   2.695  0.2921  0.8653 -0.6044
 1548SOL     OW 6189   1.787   0.363   2.601  0.2130 -0.5313  0.0831
 1548SOL    HW2 6190   1.870   0.398   2.635  0.1004 -0.9675  0.8218
 1548SOL    HW3 6191   1.785   0.273   2.632 -0.7365 -0.3941  0.4165
 1548SOL    MW4 6192   1.798   0.356   2.610  0.0728 -0.5707  0.2245
 1549SOL     OW 6193   2.002   0.510   2.742 -0.8309  0.0451  0.3586
 1549SOL    HW2 6194   2.083   0.465   2.719 -1.1557 -0.9755  1.1645
 1549SOL    HW3 6195   2.005   0.593   2.694  1.4597  0.7498  1.6661
 1549SOL    MW4 6196   2.013   0.515   2.733 -0.5715  0.0035  0.6374
 1550SOL     OW 6197   2.029   0.757   2.634  0.0098  0.1137 -0.4050
 1550SOL    HW2 6198   1.943   0.789   2.662  0.2802 -0.1023  0.6949
 1550SOL    HW3 6199   2.023   0.752   2.539 -0.9238  0.8858 -0.3944
 1550SOL    MW4 6200   2.017   0.761   2.625 -0.0777  0.1871 -0.2585
 1551SOL     OW 6201   1.793   0.888   2.716  0.2098 -0.1416  0.2663
 1551SOL    HW2 6202   1.798   0.975   2.676  1.9843 -0.1304  0.4843
 1551SOL    HW3 6203   1.716   0.848   2.675 -0.9692  1.7286  0.5913
 1551SOL    MW4 6204   1.783   0.894   2.705  0.2884  0.1067  0.3380
 1552SOL     OW 6205   1.795   1.152   2.598  0.1138 -0.2789 -0.3477
 1552SOL    HW2 6206   1.867   1.170   2.659  0.2394 -0.7501 -0.3532
 1552SOL    HW3 6207   1.832   1.171   2.512  0.1733 -0.3397 -0.3357
 1552SOL    MW4 6208   1.809   1.157   2.595  0.1383 -0.3491 -0.3468
 1553SOL     OW 6209   2.012   1.225   2.744 -0.0001 -0.2887 -0.0633
 1553SOL    HW2 6210   2.036   1.259   2.830 -0.3167 -0.9725  0.3012
 1553SOL    HW3 6211   2.093   1.188   2.709  0.1095 -0.0834 -0.0266
 1553SOL    MW4 6212   2.026   1.224   2.751 -0.0274 -0.3518 -0.0104
 1554SOL     OW 6213   2.042   1.512   2.676 -0.4193  0.2304 -0.3725
 1554SOL    HW2 6214   1.973   1.571   2.706 -2.0015 -0.9399 -1.6697
 1554SOL    HW3 6215   2.025   1.429   2.721  0.8901  0.2806  0.2569
 1554SOL    MW4 6216   2.031   1.509   2.686 -0.4553  0.0826 -0.4606
 1555SOL     OW 6217   1.814   1.675   2.751  0.2780 -0.5614 -0.5336
 1555SOL    HW2 6218   1.806   1.671   2.847  1.4775 -0.9031 -0.4436
 1555SOL    HW3 6219   1.745   1.617   2.719  0.6197 -1.3591  0.1536
 1555SOL    MW4 6220   1.803   1.667   2.760  0.4814 -0.7117 -0.4311
 1556SOL     OW 6221   1.795   1.931   2.653 -0.4701  0.4349  0.1499
 1556SOL    HW2 6222   1.878   1.968   2.684 -0.0381 -0.2382 -0.1918
 1556SOL    HW3 6223   1.780   1.855   2.710 -0.9648  0.6883  0.3569
 1556SOL    MW4 6224   1.804   1.926   2.665 -0.4784  0.3795  0.1321
 1557SOL     OW 6225   2.045   2.036   2.723 -0.3564  0.1450  0.2912
 1557SOL    HW2 6226   2.044   2.007   2.814 -1.3162  1.5736  0.7616
 1557SOL    HW3 6227   2.039   2.131   2.728 -1.1148  0.2011 -1.2713
 1557SOL    MW4 6228   2.044   2.045   2.735 -0.5831  0.3409  0.1471
 1558SOL     OW 6229   2.034   2.329   2.698 -0.1026  0.0881 -0.1046
 1558SOL    HW2 6230   2.120   2.366   2.721 -0.0363  0.4809 -0.9356
 1558SOL    HW3 6231   2.037   2.320   2.602 -0.6621 -0.7307 -0.0504
 1558SOL    MW4 6232   2.046   2.333   2.688 -0.1677  0.0319 -0.2071
 1559SOL     OW 6233   1.785   2.474   2.766 -0.3603  0.1717  0.4615
 1559SOL    HW2 6234   1.797   2.471   2.861  0.8489  0.0477  0.3125
 1559SOL    HW3 6235   1.848   2.409   2.732 -0.1480  0.8616 -0.4799
 1559SOL    MW4 6236   1.795   2.465   2.774 -0.1728  0.2463  0.3176
 1560SOL     OW 6237   1.779   2.707   2.640 -0.4625 -0.1997 -0.3423
 1560SOL    HW2 6238   1.776   2.623   2.686 -0.0702 -0.2362 -0.3821
 1560SOL    HW3 6239   1.788   2.683   2.548 -0.5736 -0.1153 -0.3752
 1560SOL    MW4 6240   1.780   2.692   2.634 -0.4254 -0.1934 -0.3519
 1561SOL     OW 6241   1.993   2.835   2.754 -0.6159  0.2694  0.0557
 1561SOL    HW2 6242   2.066   2.778   2.729 -0.6240  0.1302  0.3488
 1561SOL    HW3 6243   1.916   2.796   2.713 -0.6097  0.1173  0.1917
 1561SOL    MW4 6244   1.993   2.822   2.745 -0.6162  0.2310  0.1123
 1562SOL     OW 6245   1.988   3.093   2.637 -0.0707  0.0637 -0.0418
 1562SOL    HW2 6246   1.988   3.000   2.662 -0.7959 -0.1729 -0.8830
 1562SOL    HW3 6247   1.979   3.092   2.542  1.6895  0.9635 -0.2480
 1562SOL    MW4 6248   1.987   3.080   2.628  0.0658  0.1512 -0.1800
 1563SOL     OW 6249   1.791   3.255   2.739  0.1177  0.2316 -0.2686
 1563SOL    HW2 6250   1.779   3.335   2.688  0.4200  0.6621  0.3220
 1563SOL    HW3 6251   1.858   3.206   2.692 -0.1697  0.2618 -0.7087
 1563SOL    MW4 6252   1.798   3.259   2.726  0.1197  0.2924 -0.2487
 1564SOL     OW 6253   1.767   3.472   2.582 -0.0671 -0.3563  0.3794
 1564SOL    HW2 6254   1.842   3.501   2.634 -0.6263  0.1384  0.9221
 1564SOL    HW3 6255   1.791   3.494   2.492  0.3631 -0.0332  0.5675
 1564SOL    MW4 6256   1.780   3.479   2.577 -0.0841 -0.2484  0.4759
 1565SOL     OW 6257   1.977   3.593   2.717  0.1513 -0.0434 -0.1227
 1565SOL    HW2 6258   2.003   3.587   2.809 -0.3847 -1.7867 -0.0675
 1565SOL    HW3 6259   2.055   3.564   2.668 -0.4878 -1.8178 -0.1005
 1565SOL    MW4 6260   1.991   3.588   2.722 -0.0037 -0.5075 -0.1125
 1566SOL     OW 6261   1.993   3.862   2.599 -0.0745  0.0404 -0.1955
 1566SOL    HW2 6262   1.928   3.913   2.647  1.9599  0.4980  2.1910
 1566SOL    HW3 6263   1.988   3.774   2.636 -0.6649 -0.4308 -1.3678
 1566SOL    MW4 6264   1.984   3.857   2.610  0.1160  0.0386 -0.0353
 1567SOL     OW 6265   1.795   3.998   2.732  0.6417  0.2895 -0.1173
 1567SOL    HW2 6266   1.789   4.082   2.685  1.5750 -0.1305 -1.0058
 1567SOL    HW3 6267   1.710   3.956   2.718  1.1538 -0.1293 -2.0080
 1567SOL    MW4 6268   1.783   4.004   2.724  0.8324  0.1788 -0.4840
 1568SOL     OW 6269   1.787   4.227   2.580  0.3598 -0.0848 -0.1187
 1568SOL    HW2 6270   1.706   4.270   2.606  0.0536 -0.5741 -0.2552
 1568SOL    HW3 6271   1.802   4.255   2.489  0.6462  0.4543  0.0928
 1568SOL    MW4 6272   1.779   4.236   2.571  0.3572 -0.0782 -0.1088
 1569SOL     OW 6273   1.990   4.349   2.736  0.3013  0.0277 -0.1583
 1569SOL    HW2 6274   1.929   4.304   2.677  0.1581  1.3151 -1.0248
 1569SOL    HW3 6275   1.984   4.441   2.709  1.6850  0.3390  0.5996
 1569SOL    MW4 6276   1.981   4.355   2.724  0.4650  0.2386 -0.1726
 1570SOL     OW 6277   2.430   4.639   2.640  0.4596 -0.6375  0.4314
 1570SOL    HW2 6278   2.509   4.681   2.675 -0.9086  1.6032  0.8865
 1570SOL    HW3 6279   2.443   4.637   2.546  0.7483  0.3717  0.4487
 1570SOL    MW4 6280   2.442   4.644   2.632  0.3172 -0.2087  0.4937
 1571SOL     OW 6281   2.195   0.083   2.737 -0.0014 -0.4555 -0.2610
 1571SOL    HW2 6282   2.200   0.078   2.832  1.4535  0.7777 -0.2549
 1571SOL    HW3 6283   2.277   0.044   2.707  0.0748  0.2411 -0.9691
 1571SOL    MW4 6284   2.207   0.077   2.745  0.2006 -0.2009 -0.3536
 1572SOL     OW 6285   2.229   0.358   2.674  0.0605 -0.5049  0.4162
 1572SOL    HW2 6286   2.228   0.271   2.712  1.6354 -0.8308 -0.2647
 1572SOL    HW3 6287   2.229   0.344   2.579  0.2638  0.2341  0.2981
 1572SOL    MW4 6288   2.229   0.345   2.666  0.2951 -0.4504  0.3108
 1573SOL     OW 6289   2.481   0.451   2.764  0.3486 -0.0488  0.0527
 1573SOL    HW2 6290   2.479   0.537   2.721 -1.8482 -0.6249 -1.0945
 1573SOL    HW3 6291   2.394   0.414   2.746  0.4666 -1.5714  2.4679
 1573SOL    MW4 6292   2.469   0.458   2.756  0.0743 -0.3257  0.2200
 1574SOL     OW 6293   2.499   0.694   2.653 -0.2858 -0.1076  0.4485
 1574SOL    HW2 6294   2.424   0.744   2.685 -0.6414  0.0370 -0.5938
 1574SOL    HW3 6295   2.482   0.684   2.559  0.7189 -0.5593  0.3175
 1574SOL    MW4 6296   2.487   0.699   2.645 -0.2001 -0.1481  0.2937
 1575SOL     OW 6297   2.278   0.853   2.707 -0.3786  0.2236  0.1625
 1575SOL    HW2 6298   2.272   0.850   2.802  1.2313 -1.3279  0.2270
 1575SOL    HW3 6299   2.190   0.826   2.677 -1.0939  1.3818  1.1926
 1575SOL    MW4 6300   2.265   0.849   2.715 -0.2605  0.1717  0.3069
 1576SOL     OW 6301   2.275   1.140   2.682  0.1416 -0.2692 -0.4282
 1576SOL    HW2 6302   2.285   1.049   2.709  0.8521 -0.2263 -0.5366
 1576SOL    HW3 6303   2.290   1.138   2.587 -0.7688 -0.1799 -0.5788
 1576SOL    MW4 6304   2.278   1.128   2.673  0.1152 -0.2518 -0.4624
 1577SOL     OW 6305   2.483   1.288   2.780 -0.2022 -0.1429 -0.0050
 1577SOL    HW2 6306   2.558   1.249   2.736 -0.4224  0.4116 -0.9038
 1577SOL    HW3 6307   2.407   1.242   2.744 -0.4616  1.0905 -1.0786
 1577SOL    MW4 6308   2.483   1.277   2.769 -0.2654  0.0930 -0.2652
 1578SOL     OW 6309   2.490   1.522   2.609  1.0055  0.0494  0.4037
 1578SOL    HW2 6310   2.416   1.582   2.620  0.7639 -0.2574  0.4839
 1578SOL    HW3 6311   2.469   1.448   2.667  0.2369 -1.0954 -1.2860
 1578SOL    MW4 6312   2.477   1.520   2.618  0.8722 -0.1421  0.1913
 1579SOL     OW 6313   2.280   1.674   2.711  0.3246  0.1847  0.2669
 1579SOL    HW2 6314   2.272   1.766   2.686 -1.8440  0.6554  2.4707
 1579SOL    HW3 6315   2.195   1.636   2.689  0.1794 -0.5887  2.0927
 1579SOL    MW4 6316   2.268   1.681   2.704  0.0193  0.1448  0.7986
 1580SOL     OW 6317   2.292   1.922   2.635 -0.1172  0.1858 -0.2277
 1580SOL    HW2 6318   2.217   1.962   2.679 -0.3977 -0.8241  0.2192
 1580SOL    HW3 6319   2.276   1.936   2.542  0.2722  1.9749 -0.0463
 1580SOL    MW4 6320   2.280   1.929   2.628 -0.1029  0.2886 -0.1448
 1581SOL     OW 6321   2.547   2.061   2.717 -0.2485 -0.1336  0.3863
 1581SOL    HW2 6322   2.534   2.154   2.700 -0.6483 -0.2064  0.2869
 1581SOL    HW3 6323   2.463   2.020   2.696 -0.2316 -0.4507  0.8978
 1581SOL    MW4 6324   2.534   2.068   2.712 -0.2990 -0.1851  0.4407
 1582SOL     OW 6325   2.506   2.322   2.683  0.0552 -0.3468  0.3509
 1582SOL    HW2 6326   2.588   2.366   2.706 -0.7373  2.0777 -1.2703
 1582SOL    HW3 6327   2.502   2.329   2.587 -1.3981 -1.6381  0.3055
 1582SOL    MW4 6328   2.516   2.329   2.673 -0.2411 -0.1973  0.1310
 1583SOL     OW 6329   2.289   2.449   2.759  0.0632 -0.2366  0.0391
 1583SOL    HW2 6330   2.293   2.445   2.855 -0.2008 -0.0120  0.0611
 1583SOL    HW3 6331   2.373   2.413   2.730 -0.2063 -1.1199  0.3293
 1583SOL    MW4 6332   2.301   2.444   2.768 -0.0072 -0.3235  0.0803
 1584SOL     OW 6333   2.209   2.707   2.648  0.1768  0.3898 -0.4562
 1584SOL    HW2 6334   2.287   2.756   2.674 -0.2580  1.0451 -0.3748
 1584SOL    HW3 6335   2.221   2.621   2.688  0.2627  0.8899  0.6267
 1584SOL    MW4 6336   2.221   2.702   2.657  0.1308  0.5422 -0.3026
 1585SOL     OW 6337   2.452   2.841   2.742  0.3331  0.0604 -0.5086
 1585SOL    HW2 6338   2.539   2.802   2.732  0.3749 -0.1302  0.5255
 1585SOL    HW3 6339   2.465   2.934   2.722  1.0599  0.2847  0.9165
 1585SOL    MW4 6340   2.465   2.848   2.738  0.4345  0.0649 -0.1841
 1586SOL     OW 6341   2.464   3.086   2.618 -0.2817  0.0766 -0.5191
 1586SOL    HW2 6342   2.382   3.128   2.644 -0.6320 -0.5175 -0.6446
 1586SOL    HW3 6343   2.457   3.078   2.522 -0.0090  0.1736 -0.5465
 1586SOL    MW4 6344   2.452   3.090   2.609 -0.2919  0.0110 -0.5393
 1587SOL     OW 6345   2.221   3.220   2.725 -0.0087  0.2333  0.2091
 1587SOL    HW2 6346   2.205   3.241   2.817  0.2796  0.1788  0.2731
 1587SOL    HW3 6347   2.140   3.178   2.695  0.6294 -1.6522  1.0118
 1587SOL    MW4 6348   2.209   3.217   2.733  0.1135 -0.0227  0.3235
 1588SOL     OW 6349   2.218   3.484   2.612 -0.4168  0.0417 -0.4872
 1588SOL    HW2 6350   2.287   3.537   2.650 -0.6770 -0.9339  1.3983
 1588SOL    HW3 6351   2.221   3.401   2.660 -2.2714 -0.3607 -1.0026
 1588SOL    MW4 6352   2.227   3.480   2.623 -0.6958 -0.1401 -0.3064
 1589SOL     OW 6353   2.475   3.593   2.733 -0.1544  0.0429 -0.4243
 1589SOL    HW2 6354   2.480   3.587   2.828 -1.1739  0.0616 -0.3630
 1589SOL    HW3 6355   2.491   3.685   2.713 -0.4333  0.1358 -0.2277
 1589SOL    MW4 6356   2.478   3.604   2.743 -0.3257  0.0576 -0.3903
 1590SOL     OW 6357   2.466   3.853   2.663  0.7097 -0.0208 -0.5844
 1590SOL    HW2 6358   2.543   3.896   2.699  0.5275 -0.5865  0.4939
 1590SOL    HW3 6359   2.392   3.907   2.690  0.6452 -0.0009 -0.7994
 1590SOL    MW4 6360   2.466   3.865   2.671  0.6772 -0.0928 -0.4705
 1591SOL     OW 6361   2.217   3.965   2.723 -0.3791 -0.4612  0.3354
 1591SOL    HW2 6362   2.213   3.943   2.816  0.3730  0.4748  0.6010
 1591SOL    HW3 6363   2.142   3.921   2.684 -0.4187 -1.2605  1.3061
 1591SOL    MW4 6364   2.207   3.956   2.730 -0.2851 -0.4432  0.4985
 1592SOL     OW 6365   2.231   4.224   2.651  0.0502  0.2681  0.1392
 1592SOL    HW2 6366   2.228   4.133   2.680 -0.9655  0.1169 -0.4350
 1592SOL    HW3 6367   2.161   4.267   2.700  1.2554  1.0019  1.2600
 1592SOL    MW4 6368   2.222   4.218   2.661  0.0752  0.3450  0.2113
 1593SOL     OW 6369   2.451   4.369   2.740  0.2028  0.6753 -0.4342
 1593SOL    HW2 6370   2.371   4.325   2.711  1.3704 -0.0975 -2.6477
 1593SOL    HW3 6371   2.442   4.459   2.709 -0.1853  0.8160  0.0834
 1593SOL    MW4 6372   2.439   4.375   2.732  0.3056  0.5919 -0.6580
 1594SOL     OW 6373   2.875   4.607   2.625  0.3871 -0.4556  0.0219
 1594SOL    HW2 6374   2.956   4.643   2.661  1.0065 -1.3205 -0.4990
 1594SOL    HW3 6375   2.889   4.605   2.530  0.3756 -2.0754  0.0407
 1594SOL    MW4 6376   2.887   4.612   2.617  0.4673 -0.7834 -0.0443
 1595SOL     OW 6377   2.666   0.075   2.730  0.2237 -0.0912  0.0061
 1595SOL    HW2 6378   2.665   0.060   2.824 -0.4921  1.1522  0.2010
 1595SOL    HW3 6379   2.744   0.029   2.699  0.4198 -0.5603  1.1949
 1595SOL    MW4 6380   2.676   0.067   2.738  0.1551  0.0109  0.1887
 1596SOL     OW 6381   2.698   0.329   2.637 -0.1450 -0.2474  0.3306
 1596SOL    HW2 6382   2.692   0.244   2.681 -0.0020 -0.4462 -0.0359
 1596SOL    HW3 6383   2.617   0.374   2.662 -0.4995 -0.7210  0.0382
 1596SOL    MW4 6384   2.687   0.323   2.646 -0.1729 -0.3361  0.2437
 1597SOL     OW 6385   2.930   0.464   2.743  0.4011  0.1937  0.1097
 1597SOL    HW2 6386   2.937   0.552   2.706  2.3944  0.9263  2.1060
 1597SOL    HW3 6387   2.854   0.425   2.700  0.1217  2.5228 -1.5549
 1597SOL    MW4 6388   2.921   0.470   2.733  0.6272  0.5976  0.1535
 1598SOL     OW 6389   2.949   0.709   2.616 -0.1285 -0.2168 -0.5455
 1598SOL    HW2 6390   3.018   0.759   2.659  0.2125 -0.4048 -0.8657
 1598SOL    HW3 6391   2.869   0.758   2.633 -0.2800 -1.2039  1.8083
 1598SOL    MW4 6392   2.948   0.722   2.624 -0.1035 -0.3718 -0.2772
 1599SOL     OW 6393   2.710   0.883   2.704 -0.2859 -0.1299 -0.1039
 1599SOL    HW2 6394   2.733   0.852   2.791  1.7033 -0.5576 -0.7630
 1599SOL    HW3 6395   2.639   0.825   2.676  0.6322 -1.4626  0.2986
 1599SOL    MW4 6396   2.703   0.871   2.712  0.0976 -0.3622 -0.1378
 1600SOL     OW 6397   2.691   1.152   2.647  0.5873  0.2554  0.2623
 1600SOL    HW2 6398   2.774   1.197   2.661  0.9653 -0.0383 -0.9970
 1600SOL    HW3 6399   2.707   1.062   2.674  0.2829  0.4919  1.2773
 1600SOL    MW4 6400   2.704   1.146   2.653  0.5970  0.2478  0.2301
 1601SOL     OW 6401   2.939   1.250   2.713 -0.3179  0.0228 -0.2872
 1601SOL    HW2 6402   2.937   1.268   2.807 -1.2338  1.5618 -0.5864
 1601SOL    HW3 6403   3.019   1.200   2.700  0.3912  0.7599  1.1553
 1601SOL    MW4 6404   2.949   1.246   2.723 -0.3452  0.3231 -0.1363
 1602SOL     OW 6405   2.933   1.531   2.627 -0.0706 -0.6726  0.0392
 1602SOL    HW2 6406   2.853   1.550   2.675 -0.0171 -0.6023  0.1014
 1602SOL    HW3 6407   2.948   1.438   2.641 -0.3848 -0.7836 -0.3420
 1602SOL    MW4 6408   2.924   1.521   2.635 -0.1050 -0.6780 -0.0029
 1603SOL     OW 6409   2.706   1.650   2.741 -0.1975 -0.2793 -0.0949
 1603SOL    HW2 6410   2.675   1.640   2.832 -0.8214  0.6688 -0.1871
 1603SOL    HW3 6411   2.639   1.607   2.688 -0.3004 -0.0481 -0.1561
 1603SOL    MW4 6412   2.693   1.643   2.746 -0.2934 -0.1237 -0.1151
 1604SOL     OW 6413   2.755   1.921   2.644  0.0937  0.5299  0.1483
 1604SOL    HW2 6414   2.728   1.833   2.672  0.4338  0.0222 -1.1004
 1604SOL    HW3 6415   2.681   1.977   2.669 -0.1676 -0.1188  0.8722
 1604SOL    MW4 6416   2.741   1.917   2.651  0.1041  0.3774  0.0790
 1605SOL     OW 6417   2.968   2.076   2.747 -0.4396  0.1807  0.3490
 1605SOL    HW2 6418   2.956   2.164   2.713  1.0962 -0.5064 -2.1331
 1605SOL    HW3 6419   2.900   2.024   2.704  0.0352 -0.2667  0.1390
 1605SOL    MW4 6420   2.958   2.081   2.737 -0.1744  0.0310 -0.0062
 1606SOL     OW 6421   2.935   2.314   2.632 -0.1122  0.3914 -0.3342
 1606SOL    HW2 6422   3.018   2.358   2.649  0.3657 -0.7512  0.3858
 1606SOL    HW3 6423   2.869   2.370   2.671  0.2214  1.7864 -1.7348
 1606SOL    MW4 6424   2.938   2.327   2.639 -0.0052  0.4247 -0.4240
 1607SOL     OW 6425   2.741   2.463   2.747 -0.1205 -0.6358  0.2886
 1607SOL    HW2 6426   2.752   2.485   2.839 -0.2856 -1.1197  0.4223
 1607SOL    HW3 6427   2.728   2.548   2.703  0.8085 -0.3270  0.5887
 1607SOL    MW4 6428   2.741   2.477   2.753 -0.0197 -0.6589  0.3458
 1608SOL     OW 6429   2.698   2.727   2.670 -0.0920 -0.4174  0.2518
 1608SOL    HW2 6430   2.776   2.775   2.695  0.7612 -0.6142 -1.8940
 1608SOL    HW3 6431   2.685   2.748   2.577 -1.6532 -1.6421  0.1547
 1608SOL    MW4 6432   2.707   2.736   2.661 -0.1854 -0.6050 -0.0441
 1609SOL     OW 6433   2.918   2.838   2.779  0.2595 -0.1732  0.3526
 1609SOL    HW2 6434   2.921   2.840   2.874  1.5265 -0.8696  0.3432
 1609SOL    HW3 6435   2.922   2.929   2.752  0.9266 -0.0232  0.9480
 1609SOL    MW4 6436   2.918   2.850   2.788  0.5147 -0.2453  0.4299
 1610SOL     OW 6437   2.916   3.112   2.684  0.3300  0.0628  0.0169
 1610SOL    HW2 6438   2.842   3.171   2.695 -0.0823 -0.5225  0.4137
 1610SOL    HW3 6439   2.931   3.110   2.589  0.6664  1.1905  0.0460
 1610SOL    MW4 6440   2.908   3.119   2.673  0.3200  0.1343  0.0731
 1611SOL     OW 6441   2.647   3.221   2.762  0.0984 -0.3033 -0.1633
 1611SOL    HW2 6442   2.642   3.305   2.716 -0.3115 -0.9840 -1.3721
 1611SOL    HW3 6443   2.587   3.164   2.715  0.5741 -1.3595  0.4949
 1611SOL    MW4 6444   2.638   3.225   2.750  0.1071 -0.5324 -0.2359
 1612SOL     OW 6445   2.708   3.482   2.658  0.1552 -0.3308  0.2563
 1612SOL    HW2 6446   2.630   3.529   2.686 -1.4500 -3.0283  0.4416
 1612SOL    HW3 6447   2.706   3.487   2.562  0.9311  1.3874  0.3038
 1612SOL    MW4 6448   2.697   3.489   2.649  0.0458 -0.4600  0.2870
 1613SOL     OW 6449   2.912   3.618   2.754  0.2823  0.4047 -0.5294
 1613SOL    HW2 6450   2.915   3.601   2.848  0.7355  0.7240 -0.4886
 1613SOL    HW3 6451   2.832   3.574   2.725  1.8331 -2.5607 -0.5579
 1613SOL    MW4 6452   2.902   3.610   2.763  0.5467  0.0556 -0.5277
 1614SOL     OW 6453   2.923   3.871   2.654 -0.3439  0.1388 -0.4159
 1614SOL    HW2 6454   3.001   3.912   2.691 -0.3838 -0.2717  0.1316
 1614SOL    HW3 6455   2.924   3.781   2.688 -1.0911  0.1499 -0.3448
 1614SOL    MW4 6456   2.933   3.864   2.663 -0.4477  0.0861 -0.3343
 1615SOL     OW 6457   2.698   3.989   2.754 -0.2844 -0.4662 -0.4727
 1615SOL    HW2 6458   2.693   4.078   2.719 -0.1789  0.2414  1.2578
 1615SOL    HW3 6459   2.783   3.956   2.724 -0.5867 -0.1941 -1.6095
 1615SOL    MW4 6460   2.709   3.996   2.746 -0.3104 -0.3370 -0.3944
 1616SOL     OW 6461   2.662   4.225   2.650  0.3235  0.1806 -0.0126
 1616SOL    HW2 6462   2.734   4.280   2.680  1.0928 -0.9286  0.1985
 1616SOL    HW3 6463   2.583   4.274   2.676  0.9864  0.9468  0.6035
 1616SOL    MW4 6464   2.661   4.239   2.658  0.5125  0.1354  0.0965
 1617SOL     OW 6465   2.898   4.347   2.728  0.1121  0.1532 -0.1125
 1617SOL    HW2 6466   2.902   4.368   2.821 -1.9142 -1.0268  0.2820
 1617SOL    HW3 6467   2.894   4.431   2.683 -2.3870  0.7419  1.1039
 1617SOL    MW4 6468   2.898   4.361   2.734 -0.4850  0.0752  0.1001
 1618SOL     OW 6469   3.356   4.616   2.636  0.3225  0.2616 -0.0073
 1618SOL    HW2 6470   3.368   4.528   2.670  0.5565  0.0253 -0.6978
 1618SOL    HW3 6471   3.273   4.646   2.673  1.0496  0.3785  1.5457
 1618SOL    MW4 6472   3.347   4.609   2.645  0.4493  0.2459  0.1065
 1619SOL     OW 6473   3.102   0.052   2.725 -0.1779  0.1380 -0.3408
 1619SOL    HW2 6474   3.107   0.051   2.820  0.3255 -0.6800 -0.3746
 1619SOL    HW3 6475   3.114   0.144   2.701  1.3668  0.1046  0.2888
 1619SOL    MW4 6476   3.104   0.064   2.734  0.0923  0.0257 -0.2622
 1620SOL     OW 6477   3.166   0.311   2.661 -0.3580 -0.2403  0.1274
 1620SOL    HW2 6478   3.088   0.363   2.679  0.0240  0.3976 -0.0477
 1620SOL    HW3 6479   3.180   0.320   2.567  1.5279  1.9495  0.5648
 1620SOL    MW4 6480   3.158   0.319   2.651 -0.0588  0.1328  0.1620
 1621SOL     OW 6481   3.387   0.462   2.790  0.1945 -0.0099 -0.4036
 1621SOL    HW2 6482   3.373   0.547   2.747 -0.0135  0.5539  0.7710
 1621SOL    HW3 6483   3.319   0.406   2.753 -0.5137  0.7009 -0.1912
 1621SOL    MW4 6484   3.376   0.466   2.779  0.0736  0.1582 -0.2206
 1622SOL     OW 6485   3.342   0.723   2.646  0.1893 -0.2831 -0.1342
 1622SOL    HW2 6486   3.404   0.779   2.693 -0.5459  1.1898 -0.8977
 1622SOL    HW3 6487   3.379   0.715   2.558 -0.3123 -0.0466 -0.3643
 1622SOL    MW4 6488   3.355   0.729   2.641  0.0261 -0.0575 -0.2653
 1623SOL     OW 6489   3.126   0.863   2.761  0.0756  0.4037  0.1011
 1623SOL    HW2 6490   3.123   0.869   2.856 -0.1813  1.9235  0.0112
 1623SOL    HW3 6491   3.203   0.809   2.742  0.8060  1.0619  1.1408
 1623SOL    MW4 6492   3.136   0.857   2.771  0.1381  0.6911  0.2264
 1624SOL     OW 6493   3.181   1.115   2.662 -0.7184  0.3597 -0.1872
 1624SOL    HW2 6494   3.169   1.027   2.698 -0.8141  0.5853  0.3341
 1624SOL    HW3 6495   3.155   1.107   2.570  1.9974 -0.8413 -0.9202
 1624SOL    MW4 6496   3.176   1.102   2.655 -0.3727  0.2310 -0.2151
 1625SOL     OW 6497   3.410   1.288   2.759 -0.3415 -0.2260 -0.3136
 1625SOL    HW2 6498   3.404   1.277   2.853  2.0791  0.2908 -0.0555
 1625SOL    HW3 6499   3.341   1.232   2.724 -1.5454 -0.0813  1.7664
 1625SOL    MW4 6500   3.400   1.279   2.766 -0.1809 -0.1387 -0.0051
 1626SOL     OW 6501   3.362   1.555   2.667  0.1419  0.2163 -0.0771
 1626SOL    HW2 6502   3.279   1.586   2.705 -0.7887  0.4934 -2.2228
 1626SOL    HW3 6503   3.368   1.464   2.693 -1.7700 -0.3080 -1.3586
 1626SOL    MW4 6504   3.351   1.547   2.675 -0.2331  0.1837 -0.5292
 1627SOL     OW 6505   3.118   1.671   2.762 -0.1180 -0.2619  0.3587
 1627SOL    HW2 6506   3.130   1.756   2.718 -0.1791 -0.2478  0.3686
 1627SOL    HW3 6507   3.045   1.630   2.714 -0.7435  0.1111  0.9805
 1627SOL    MW4 6508   3.110   1.677   2.750 -0.2086 -0.2109  0.4420
 1628SOL     OW 6509   3.174   1.916   2.653  0.1299 -0.1174  0.6799
 1628SOL    HW2 6510   3.256   1.958   2.678 -0.8560  2.3745 -0.0978
 1628SOL    HW3 6511   3.106   1.979   2.679 -1.4928 -1.8021  0.6311
 1628SOL    MW4 6512   3.176   1.930   2.660 -0.2143 -0.0109  0.5709
 1629SOL     OW 6513   3.403   2.057   2.767 -0.0096  0.3975  0.0559
 1629SOL    HW2 6514   3.390   2.070   2.861 -0.6649  0.5188 -0.0489
 1629SOL    HW3 6515   3.388   2.144   2.729 -0.2181  0.2421 -0.2121
 1629SOL    MW4 6516   3.399   2.071   2.775 -0.1236  0.3930  0.0067
 1630SOL     OW 6517   3.406   2.316   2.661  0.2356  0.1966 -0.3883
 1630SOL    HW2 6518   3.485   2.361   2.693 -0.3329  1.6981 -1.0369
 1630SOL    HW3 6519   3.413   2.321   2.566 -0.0789 -0.7001 -0.4640
 1630SOL    MW4 6520   3.417   2.323   2.653  0.1191  0.2764 -0.4839
 1631SOL     OW 6521   3.166   2.428   2.731  0.0579 -0.2834 -0.1190
 1631SOL    HW2 6522   3.172   2.517   2.696  0.3522 -0.0174  0.5843
 1631SOL    HW3 6523   3.242   2.383   2.695 -0.5883 -0.5237 -1.2129
 1631SOL    MW4 6524   3.177   2.434   2.722  0.0115 -0.2800 -0.1705
 1632SOL     OW 6525   3.140   2.699   2.698  0.6658 -0.5794 -0.2441
 1632SOL    HW2 6526   3.209   2.760   2.722 -0.4317 -0.1006  1.7911
 1632SOL    HW3 6527   3.060   2.738   2.734 -0.2132 -2.6402  0.1151
 1632SOL    MW4 6528   3.138   2.712   2.706  0.4051 -0.7881  0.0718
 1633SOL     OW 6529   3.368   2.822   2.768  0.2158  0.3125 -0.2592
 1633SOL    HW2 6530   3.373   2.801   2.861 -0.1215 -1.2586 -0.5904
 1633SOL    HW3 6531   3.442   2.776   2.729 -0.9906 -0.9226 -1.1116
 1633SOL    MW4 6532   3.379   2.813   2.775  0.0121 -0.0577 -0.4153
 1634SOL     OW 6533   3.338   3.078   2.654  0.7272 -0.0910  0.3895
 1634SOL    HW2 6534   3.333   2.994   2.700  2.0701  0.3062  1.2982
 1634SOL    HW3 6535   3.356   3.055   2.563 -1.1697 -0.8551  0.1859
 1634SOL    MW4 6536   3.340   3.064   2.648  0.6541 -0.1394  0.4825
 1635SOL     OW 6537   3.152   3.259   2.738  0.2605  0.4932 -0.2209
 1635SOL    HW2 6538   3.216   3.196   2.704  1.2450 -0.5158  3.2458
 1635SOL    HW3 6539   3.067   3.218   2.723  0.7106 -0.2242 -0.8410
 1635SOL    MW4 6540   3.149   3.245   2.732  0.4498  0.2654  0.1547
 1636SOL     OW 6541   3.140   3.530   2.650 -0.5568 -0.2214  0.0402
 1636SOL    HW2 6542   3.155   3.440   2.678  0.1124  0.7756  3.0819
 1636SOL    HW3 6543   3.056   3.554   2.688  0.8150  1.4846  2.1020
 1636SOL    MW4 6544   3.131   3.521   2.659 -0.2875  0.1352  0.7135
 1637SOL     OW 6545   3.365   3.654   2.712  0.1495 -1.0101 -0.3260
 1637SOL    HW2 6546   3.368   3.646   2.808  0.2578  0.9123 -0.1444
 1637SOL    HW3 6547   3.283   3.610   2.687 -0.2340 -0.9055  0.7150
 1637SOL    MW4 6548   3.355   3.647   2.722  0.1132 -0.7427 -0.1647
 1638SOL     OW 6549   3.357   3.910   2.607 -0.4679 -0.0962  0.3404
 1638SOL    HW2 6550   3.380   3.823   2.639  1.0079  0.3250  0.4399
 1638SOL    HW3 6551   3.362   3.903   2.511 -0.7323 -0.2281  0.3369
 1638SOL    MW4 6552   3.361   3.898   2.598 -0.3080 -0.0580  0.3531
 1639SOL     OW 6553   3.142   3.974   2.766  0.1569 -0.2619 -0.3427
 1639SOL    HW2 6554   3.133   4.067   2.744  1.0654 -0.3876 -1.2851
 1639SOL    HW3 6555   3.213   3.943   2.709  0.1223 -1.4382  0.2511
 1639SOL    MW4 6556   3.150   3.982   2.755  0.2722 -0.4337 -0.3887
 1640SOL     OW 6557   3.136   4.241   2.665 -0.0644 -0.2731  0.2187
 1640SOL    HW2 6558   3.048   4.276   2.682  0.1936 -0.5229  2.2815
 1640SOL    HW3 6559   3.135   4.216   2.573 -2.0110  0.1840  0.0962
 1640SOL    MW4 6560   3.124   4.242   2.655 -0.2872 -0.2458  0.4747
 1641SOL     OW 6561   3.364   4.358   2.754  0.2944  0.7677  0.4051
 1641SOL    HW2 6562   3.357   4.378   2.848 -0.1144  2.1009  0.1043
 1641SOL    HW3 6563   3.283   4.313   2.732  0.6357 -0.0433  0.8158
 1641SOL    MW4 6564   3.353   4.355   2.764  0.2855  0.8366  0.4196
 1642SOL     OW 6565   3.833   4.639   2.693 -0.3044  0.5501 -0.0132
 1642SOL    HW2 6566   3.824   4.556   2.740 -0.2929 -0.2489 -1.4103
 1642SOL    HW3 6567   3.753   4.687   2.714  0.1778  0.6538  1.6805
 1642SOL    MW4 6568   3.821   4.634   2.702 -0.2393  0.4584  0.0259
 1643SOL     OW 6569   3.581   0.081   2.728  0.2705  0.3682 -0.1959
 1643SOL    HW2 6570   3.577   0.167   2.685 -0.7945 -0.5697 -2.0308
 1643SOL    HW3 6571   3.503   0.035   2.697  1.6080 -1.8092 -0.4372
 1643SOL    MW4 6572   3.571   0.087   2.718  0.3064 -0.0428 -0.4698
 1644SOL     OW 6573   3.582   0.344   2.632  0.3479  0.3899  0.3237
 1644SOL    HW2 6574   3.653   0.393   2.674 -0.4949  0.5509  1.5664
 1644SOL    HW3 6575   3.503   0.368   2.681 -0.1266 -1.9871  0.8018
 1644SOL    MW4 6576   3.581   0.353   2.644  0.1741  0.0976  0.5508
 1645SOL     OW 6577   3.787   0.503   2.741 -0.1516 -0.2487 -0.1456
 1645SOL    HW2 6578   3.802   0.481   2.833 -1.0469 -1.3257 -0.2454
 1645SOL    HW3 6579   3.855   0.455   2.694 -1.4195 -1.9985 -0.2654
 1645SOL    MW4 6580   3.798   0.493   2.747 -0.4370 -0.6217 -0.1746
 1646SOL     OW 6581   3.782   0.764   2.655  0.0395 -0.0317  0.1073
 1646SOL    HW2 6582   3.701   0.807   2.685 -0.4973 -1.0679  0.1603
 1646SOL    HW3 6583   3.782   0.680   2.700  0.7701 -0.3453 -0.4867
 1646SOL    MW4 6584   3.771   0.759   2.665  0.0651 -0.2098  0.0359
 1647SOL     OW 6585   3.538   0.874   2.761 -0.0556 -0.0604  0.0659
 1647SOL    HW2 6586   3.563   0.880   2.853  1.0353 -0.5634 -0.1838
 1647SOL    HW3 6587   3.552   0.961   2.726 -3.1198  0.8835  0.9914
 1647SOL    MW4 6588   3.543   0.886   2.768 -0.3160 -0.0023  0.1551
 1648SOL     OW 6589   3.599   1.124   2.669 -0.1029 -0.3615 -0.4773
 1648SOL    HW2 6590   3.677   1.174   2.693 -0.2308 -0.6682  0.6434
 1648SOL    HW3 6591   3.526   1.179   2.697 -0.2643 -0.6187 -0.3889
 1648SOL    MW4 6592   3.599   1.138   2.676 -0.1411 -0.4359 -0.3178
 1649SOL     OW 6593   3.827   1.245   2.783  0.0958 -0.1057  0.1012
 1649SOL    HW2 6594   3.898   1.191   2.748 -0.3397 -0.7477  0.1960
 1649SOL    HW3 6595   3.835   1.329   2.737  0.6877 -0.3017 -0.1517
 1649SOL    MW4 6596   3.837   1.249   2.772  0.1164 -0.2162  0.0804
 1650SOL     OW 6597   3.839   1.507   2.649  0.4917 -0.0770 -0.4080
 1650SOL    HW2 6598   3.903   1.568   2.684  0.1323  1.3443 -2.1305
 1650SOL    HW3 6599   3.755   1.538   2.685  0.4721 -0.3777 -0.1971
 1650SOL    MW4 6600   3.836   1.520   2.658  0.4417  0.0708 -0.6075
 1651SOL     OW 6601   3.612   1.617   2.744 -0.6195  0.3064 -0.1789
 1651SOL    HW2 6602   3.623   1.705   2.707 -2.0209  0.1151 -1.0507
 1651SOL    HW3 6603   3.523   1.593   2.722 -1.1966 -0.1743  2.5680
 1651SOL    MW4 6604   3.602   1.626   2.736 -0.8805  0.2177  0.0685
 1652SOL     OW 6605   3.624   1.891   2.658  0.4144  0.1386 -0.1943
 1652SOL    HW2 6606   3.557   1.954   2.684  0.6845  0.7991 -1.0537
 1652SOL    HW3 6607   3.622   1.892   2.562  2.1273  0.7017 -0.2435
 1652SOL    MW4 6608   3.615   1.900   2.648  0.6761  0.3001 -0.3141
 1653SOL     OW 6609   3.857   2.006   2.787  0.2352 -0.8753  0.1956
 1653SOL    HW2 6610   3.935   1.984   2.737 -0.5710  0.9507 -1.9297
 1653SOL    HW3 6611   3.787   1.951   2.750  0.3952 -2.2502  1.8576
 1653SOL    MW4 6612   3.858   1.996   2.776  0.1499 -0.8158  0.1345
 1654SOL     OW 6613   3.846   2.277   2.634 -0.4763  0.2846  0.1405
 1654SOL    HW2 6614   3.851   2.193   2.681  0.0337  0.7765  0.9720
 1654SOL    HW3 6615   3.839   2.252   2.542 -0.8835 -0.6839  0.4215
 1654SOL    MW4 6616   3.846   2.263   2.628 -0.4627  0.2217  0.2873
 1655SOL     OW 6617   3.631   2.441   2.739 -0.0618 -0.4544  0.1187
 1655SOL    HW2 6618   3.630   2.427   2.833  0.7422 -0.2456  0.1646
 1655SOL    HW3 6619   3.702   2.385   2.707  0.0877 -0.0409 -0.2797
 1655SOL    MW4 6620   3.641   2.432   2.747  0.0640 -0.3723  0.0722
 1656SOL     OW 6621   3.607   2.721   2.665 -0.8515  0.3178  0.1797
 1656SOL    HW2 6622   3.615   2.629   2.689 -2.4493  0.3578  0.9256
 1656SOL    HW3 6623   3.602   2.721   2.569  1.2976 -0.1836  0.0434
 1656SOL    MW4 6624   3.608   2.709   2.655 -0.7788  0.2569  0.2601
 1657SOL     OW 6625   3.818   2.878   2.769  0.4007  0.2742 -0.4194
 1657SOL    HW2 6626   3.875   2.810   2.736  0.4615  0.5129 -0.8023
 1657SOL    HW3 6627   3.730   2.853   2.740  0.6527  1.2899 -2.0701
 1657SOL    MW4 6628   3.814   2.866   2.761  0.4419  0.4397 -0.6877
 1658SOL     OW 6629   3.843   3.119   2.619  0.1163  0.2064 -0.0103
 1658SOL    HW2 6630   3.758   3.158   2.641 -0.0921 -0.0503 -0.3574
 1658SOL    HW3 6631   3.842   3.034   2.662 -0.0208 -0.0202 -0.4608
 1658SOL    MW4 6632   3.832   3.113   2.628  0.0707  0.1426 -0.1155
 1659SOL     OW 6633   3.596   3.185   2.709  0.3174 -0.1223 -0.2007
 1659SOL    HW2 6634   3.577   3.274   2.680  0.0453  0.1336  0.7657
 1659SOL    HW3 6635   3.525   3.132   2.672 -0.1877  0.2479  0.2388
 1659SOL    MW4 6636   3.584   3.190   2.700  0.2149 -0.0397 -0.0152
 1660SOL     OW 6637   3.574   3.465   2.631  0.2228 -0.4225  0.0244
 1660SOL    HW2 6638   3.649   3.508   2.673  0.7559 -1.1330 -0.1916
 1660SOL    HW3 6639   3.498   3.518   2.656  0.7168 -0.0652  0.7654
 1660SOL    MW4 6640   3.574   3.478   2.640  0.3583 -0.4691  0.0937
 1661SOL     OW 6641   3.802   3.593   2.739 -0.3728  0.0972 -0.0364
 1661SOL    HW2 6642   3.880   3.546   2.709  0.9821  1.2378  1.5828
 1661SOL    HW3 6643   3.819   3.685   2.716 -0.0075  0.7536  2.6045
 1661SOL    MW4 6644   3.815   3.599   2.732 -0.1458  0.3343  0.5257
 1662SOL     OW 6645   3.799   3.876   2.666 -0.1029  0.4993 -0.0894
 1662SOL    HW2 6646   3.878   3.918   2.702 -1.1856  0.7199  2.1524
 1662SOL    HW3 6647   3.727   3.928   2.701 -1.3792 -1.8394  0.8422
 1662SOL    MW4 6648   3.800   3.889   2.676 -0.4141  0.2199  0.3293
 1663SOL     OW 6649   3.581   4.032   2.747  0.4497 -0.0814  0.4337
 1663SOL    HW2 6650   3.585   4.119   2.706 -0.5310  0.6068  1.7313
 1663SOL    HW3 6651   3.504   3.991   2.708  0.5918 -0.1532  0.2273
 1663SOL    MW4 6652   3.572   4.038   2.737  0.3391 -0.0001  0.5776
 1664SOL     OW 6653   3.606   4.284   2.628  0.0349 -0.0978 -0.3197
 1664SOL    HW2 6654   3.524   4.304   2.672  0.3053 -1.3627  0.7841
 1664SOL    HW3 6655   3.581   4.263   2.538 -0.8924 -0.9088  0.1290
 1664SOL    MW4 6656   3.592   4.284   2.622 -0.0518 -0.3717 -0.1148
 1665SOL     OW 6657   3.818   4.363   2.766  0.0592  0.1301 -0.1334
 1665SOL    HW2 6658   3.892   4.328   2.717  0.1394  2.1639 -1.5274
 1665SOL    HW3 6659   3.742   4.345   2.711 -0.3910 -1.2872  0.9445
 1665SOL    MW4 6660   3.818   4.356   2.752  0.0104  0.2114 -0.1751
 1666SOL     OW 6661   4.269   4.652   2.676  0.2103 -0.2235 -0.3911
 1666SOL    HW2 6662   4.206   4.713   2.716  0.6401  1.8273 -2.7003
 1666SOL    HW3 6663   4.354   4.690   2.696  0.5943 -1.3375  0.1113
 1666SOL    MW4 6664   4.272   4.665   2.684  0.3177 -0.0999 -0.6295
 1667SOL     OW 6665   4.051   0.104   2.800  0.3482  0.1302  0.4697
 1667SOL    HW2 6666   4.033   0.116   2.893 -1.6638 -1.3191  0.3127
 1667SOL    HW3 6667   3.981   0.045   2.770 -0.6012  2.6741 -2.5292
 1667SOL    MW4 6668   4.039   0.098   2.808 -0.0425  0.2746  0.0533
 1668SOL     OW 6669   4.008   0.351   2.655  0.8640 -0.5042 -0.4262
 1668SOL    HW2 6670   4.031   0.263   2.683 -0.6527 -1.0702 -0.9147
 1668SOL    HW3 6671   4.029   0.354   2.562 -0.2173 -0.7398 -0.6775
 1668SOL    MW4 6672   4.014   0.340   2.647  0.5212 -0.6099 -0.5238
 1669SOL     OW 6673   4.227   0.480   2.770 -0.2200 -0.1127 -0.3285
 1669SOL    HW2 6674   4.147   0.461   2.722 -0.0979  1.0455 -1.0058
 1669SOL    HW3 6675   4.293   0.425   2.729  0.0713  1.4928 -2.0940
 1669SOL    MW4 6676   4.225   0.470   2.758 -0.1655  0.2519 -0.6508
 1670SOL     OW 6677   4.241   0.737   2.650 -0.0933 -0.5838 -0.1455
 1670SOL    HW2 6678   4.256   0.650   2.687  1.5498 -0.2576 -0.0095
 1670SOL    HW3 6679   4.259   0.726   2.557  0.7012 -0.2640 -0.0340
 1670SOL    MW4 6680   4.246   0.724   2.643  0.2283 -0.4985 -0.1128
 1671SOL     OW 6681   4.025   0.857   2.767  0.0317 -0.2111  0.0012
 1671SOL    HW2 6682   4.086   0.802   2.719  0.6778 -0.6513  1.3132
 1671SOL    HW3 6683   3.939   0.826   2.741  0.3849 -1.2049  0.0071
 1671SOL    MW4 6684   4.022   0.846   2.757  0.1635 -0.4003  0.1751
 1672SOL     OW 6685   4.018   1.096   2.647 -0.6356 -0.2054  0.0669
 1672SOL    HW2 6686   4.096   1.148   2.666 -1.2751  1.4577 -1.6832
 1672SOL    HW3 6687   4.033   1.013   2.692  1.5228  0.5879  0.8784
 1672SOL    MW4 6688   4.030   1.092   2.656 -0.4352  0.1187 -0.0569
 1673SOL     OW 6689   4.245   1.264   2.758  0.0422 -0.0127  0.3925
 1673SOL    HW2 6690   4.236   1.346   2.710 -1.4244 -0.2056  0.3159
 1673SOL    HW3 6691   4.324   1.223   2.721 -1.2698 -0.3479 -2.1664
 1673SOL    MW4 6692   4.255   1.270   2.747 -0.3244 -0.0824  0.0447
 1674SOL     OW 6693   4.260   1.505   2.639 -0.2916 -0.0367  0.3019
 1674SOL    HW2 6694   4.342   1.546   2.668 -0.1901  0.4583 -0.6589
 1674SOL    HW3 6695   4.263   1.511   2.543 -0.3470 -2.1837  0.1568
 1674SOL    MW4 6696   4.271   1.511   2.630 -0.2855 -0.2547  0.1560
 1675SOL     OW 6697   4.054   1.657   2.756 -0.3100 -0.4002 -0.1071
 1675SOL    HW2 6698   4.081   1.655   2.848 -1.6166  1.9851  0.3796
 1675SOL    HW3 6699   4.124   1.612   2.709  1.2881 -0.0310  1.8510
 1675SOL    MW4 6700   4.067   1.651   2.762 -0.2716 -0.0368  0.2155
 1676SOL     OW 6701   4.066   1.923   2.637  0.1901 -0.1802  0.3310
 1676SOL    HW2 6702   4.150   1.964   2.658 -0.9055  1.4612  1.6991
 1676SOL    HW3 6703   4.072   1.837   2.678  1.3008 -0.1807  0.2026
 1676SOL    MW4 6704   4.078   1.917   2.645  0.1921  0.0363  0.4946
 1677SOL     OW 6705   4.294   2.050   2.741  0.1029 -0.2885  0.4632
 1677SOL    HW2 6706   4.275   2.129   2.691 -2.0443 -1.7428 -1.0909
 1677SOL    HW3 6707   4.362   2.006   2.690 -0.3754 -0.5987  0.0956
 1677SOL    MW4 6708   4.300   2.055   2.727 -0.2435 -0.5213  0.2096
 1678SOL     OW 6709   4.260   2.291   2.622 -0.0108 -0.2470 -0.2584
 1678SOL    HW2 6710   4.184   2.340   2.652  0.0921  0.3811 -1.0192
 1678SOL    HW3 6711   4.261   2.303   2.527 -0.6129 -2.6197 -0.5954
 1678SOL    MW4 6712   4.250   2.299   2.613 -0.0766 -0.4772 -0.4033
 1679SOL     OW 6713   4.050   2.448   2.707 -0.4953  0.2185  0.0933
 1679SOL    HW2 6714   4.039   2.456   2.801 -1.2735 -1.2346  0.1426
 1679SOL    HW3 6715   3.979   2.391   2.679 -0.8337  1.3966 -1.5127
 1679SOL    MW4 6716   4.040   2.442   2.715 -0.6426  0.1822 -0.1121
 1680SOL     OW 6717   4.010   2.716   2.645  0.1203  0.0391  0.5085
 1680SOL    HW2 6718   4.097   2.742   2.675  0.6222 -1.2378  0.1925
 1680SOL    HW3 6719   4.007   2.621   2.658 -1.4170  0.1315  1.0125
 1680SOL    MW4 6720   4.021   2.707   2.651 -0.0163 -0.1172  0.5333
 1681SOL     OW 6721   4.257   2.817   2.736 -0.0422 -0.3486  0.0996
 1681SOL    HW2 6722   4.228   2.828   2.827  1.4986 -0.1465  0.5779
 1681SOL    HW3 6723   4.252   2.904   2.698  3.0234  0.3509  1.1393
 1681SOL    MW4 6724   4.252   2.830   2.743  0.5656 -0.2297  0.2999
 1682SOL     OW 6725   4.244   3.074   2.650 -0.0228 -0.3206  0.3946
 1682SOL    HW2 6726   4.168   3.124   2.680  0.0390 -0.4923  0.8502
 1682SOL    HW3 6727   4.238   3.076   2.554 -1.0039 -0.9491  0.4370
 1682SOL    MW4 6728   4.233   3.081   2.641 -0.1441 -0.4262  0.4603
 1683SOL     OW 6729   4.045   3.240   2.761 -0.3359  0.0542 -0.0463
 1683SOL    HW2 6730   4.033   3.325   2.719  0.5280  0.2193  0.0291
 1683SOL    HW3 6731   3.974   3.186   2.727 -0.5698  0.6487 -0.5092
 1683SOL    MW4 6732   4.034   3.244   2.751 -0.2528  0.1544 -0.0974
 1684SOL     OW 6733   4.046   3.471   2.637  0.6169 -0.3466  0.5788
 1684SOL    HW2 6734   4.124   3.519   2.665  1.1596 -0.8603 -0.0610
 1684SOL    HW3 6735   4.037   3.493   2.544  0.7223 -1.2808  0.3475
 1684SOL    MW4 6736   4.055   3.480   2.628  0.7024 -0.5376  0.4639
 1685SOL     OW 6737   4.254   3.639   2.742 -0.1523 -0.1556  0.3621
 1685SOL    HW2 6738   4.277   3.633   2.835 -0.6849  1.9129  0.6502
 1685SOL    HW3 6739   4.324   3.592   2.697  1.9235  1.6728  1.6002
 1685SOL    MW4 6740   4.266   3.632   2.748  0.0513  0.3586  0.5635
 1686SOL     OW 6741   4.248   3.887   2.624  0.3387  0.1202 -0.0501
 1686SOL    HW2 6742   4.248   3.801   2.667  0.4550 -0.4555 -1.2034
 1686SOL    HW3 6743   4.320   3.934   2.667  0.1659 -0.3006  0.7078
 1686SOL    MW4 6744   4.258   3.882   2.636  0.3313 -0.0113 -0.1023
 1687SOL     OW 6745   4.028   3.982   2.764 -0.3015  0.1170 -0.1922
 1687SOL    HW2 6746   4.041   3.940   2.849 -0.7081 -0.5101 -0.4359
 1687SOL    HW3 6747   4.098   3.948   2.708 -1.1464 -0.9141 -0.6362
 1687SOL    MW4 6748   4.039   3.972   2.768 -0.4666 -0.1018 -0.2829
 1688SOL     OW 6749   4.041   4.247   2.641  0.1029  0.1847  0.4121
 1688SOL    HW2 6750   4.031   4.159   2.677 -0.1998 -0.3390 -0.9500
 1688SOL    HW3 6751   4.025   4.237   2.547  0.8927  1.5458  0.1212
 1688SOL    MW4 6752   4.038   4.234   2.633  0.1672  0.2952  0.1940
 1689SOL     OW 6753   4.247   4.391   2.766 -0.0438  0.5160 -0.3046
 1689SOL    HW2 6754   4.184   4.352   2.706  0.1902  1.5257 -1.2118
 1689SOL    HW3 6755   4.252   4.483   2.740  0.5101  0.8242  0.8729
 1689SOL    MW4 6756   4.240   4.398   2.755  0.0601  0.6899 -0.2690
 1690SOL     OW 6757   0.230   0.018   3.112 -0.0987 -0.0920 -0.1022
 1690SOL    HW2 6758   0.202   0.016   3.204 -0.0107 -0.8176 -0.0875
 1690SOL    HW3 6759   0.152   0.048   3.064 -0.2120  0.0754  0.1859
 1690SOL    MW4 6760   0.216   0.022   3.118 -0.1021 -0.1656 -0.0622
 1691SOL     OW 6761   4.483   0.128   3.008  0.5404 -0.2766  0.1901
 1691SOL    HW2 6762   4.414   0.082   3.055  0.8205 -1.0452 -0.1378
 1691SOL    HW3 6763   4.506   0.202   3.065  0.0449 -0.5087  0.6930
 1691SOL    MW4 6764   4.477   0.132   3.022  0.5120 -0.4086  0.2131
 1692SOL     OW 6765   0.043   0.360   3.157 -0.0258  0.0412 -0.0033
 1692SOL    HW2 6766   0.036   0.360   3.253  0.0680 -0.1721  0.0033
 1692SOL    HW3 6767  -0.041   0.397   3.127 -0.8906 -1.8027  0.0968
 1692SOL    MW4 6768   0.031   0.365   3.166 -0.1276 -0.2302  0.0108
 1693SOL     OW 6769   0.231   0.473   3.015  0.1231  0.2369 -0.6764
 1693SOL    HW2 6770   0.319   0.452   3.047 -0.4962 -0.0047  0.9117
 1693SOL    HW3 6771   0.172   0.428   3.075 -1.0961  0.4272 -1.7060
 1693SOL    MW4 6772   0.235   0.464   3.027 -0.1195  0.2301 -0.6027
 1694SOL     OW 6773   0.234   0.744   3.133  0.2217 -0.2237 -0.1541
 1694SOL    HW2 6774   0.254   0.734   3.226  1.4307  0.1829 -0.3708
 1694SOL    HW3 6775   0.207   0.657   3.104 -0.6130 -0.2483  0.6815
 1694SOL    MW4 6776   0.233   0.731   3.141  0.2711 -0.1733 -0.0725
 1695SOL     OW 6777   0.024   0.910   3.088  0.2845 -0.0684 -0.6584
 1695SOL    HW2 6778   0.096   0.852   3.111  0.2631  0.6199  1.2441
 1695SOL    HW3 6779   0.011   0.897   2.994  2.7383 -0.3581 -0.9850
 1695SOL    MW4 6780   0.031   0.901   3.078  0.6054 -0.0158 -0.4505
 1696SOL     OW 6781   0.021   1.183   3.166 -0.2932 -0.6223 -0.8270
 1696SOL    HW2 6782  -0.069   1.203   3.139  0.0786  0.8311 -0.9930
 1696SOL    HW3 6783   0.032   1.090   3.144 -1.7440 -0.8096 -0.8172
 1696SOL    MW4 6784   0.010   1.173   3.159 -0.4356 -0.4553 -0.8476
 1697SOL     OW 6785   0.238   1.286   3.018  0.2245 -0.1524  0.4848
 1697SOL    HW2 6786   0.157   1.260   3.062 -0.7545  0.9968 -0.5580
 1697SOL    HW3 6787   0.218   1.278   2.925  1.0984  0.7298  0.2040
 1697SOL    MW4 6788   0.224   1.282   3.011  0.2106  0.1157  0.3102
 1698SOL     OW 6789   0.291   1.559   3.050 -0.4335 -0.4905 -0.1312
 1698SOL    HW2 6790   0.204   1.594   3.031 -0.5918 -0.4771  0.6177
 1698SOL    HW3 6791   0.282   1.465   3.038  0.2850 -0.1973 -3.2950
 1698SOL    MW4 6792   0.278   1.551   3.046 -0.3596 -0.4500 -0.4499
 1699SOL     OW 6793   0.053   1.689   2.988  0.3062  0.0978  0.5346
 1699SOL    HW2 6794  -0.020   1.632   3.013  1.4085 -1.0575  1.1638
 1699SOL    HW3 6795   0.041   1.768   3.042 -0.3100 -0.2081  0.8524
 1699SOL    MW4 6796   0.042   1.692   2.999  0.3703 -0.0950  0.6596
 1700SOL     OW 6797   0.062   1.937   3.113  0.3027 -0.1141  0.2802
 1700SOL    HW2 6798  -0.016   1.978   3.075  0.0057 -1.3588 -0.4890
 1700SOL    HW3 6799   0.135   1.981   3.071  0.0001  0.5641  0.4631
 1700SOL    MW4 6800   0.061   1.948   3.102  0.2236 -0.1889  0.2029
 1701SOL     OW 6801   0.290   2.059   3.013 -0.4465  0.2423  0.2219
 1701SOL    HW2 6802   0.278   2.150   3.041  1.5843  0.5570  0.1839
 1701SOL    HW3 6803   0.285   2.062   2.918  1.4474  0.6601  0.1022
 1701SOL    MW4 6804   0.288   2.072   3.004  0.0713  0.3389  0.2011
 1702SOL     OW 6805   0.247   2.334   3.074  0.0595  0.2563  0.6436
 1702SOL    HW2 6806   0.259   2.297   3.162  1.6641 -2.2094 -0.5657
 1702SOL    HW3 6807   0.325   2.387   3.060  0.8655 -1.1216 -0.1343
 1702SOL    MW4 6808   0.259   2.337   3.084  0.3776 -0.2508  0.3814
 1703SOL     OW 6809   4.484   2.456   2.975 -0.0628  0.1251 -0.1562
 1703SOL    HW2 6810   4.482   2.539   3.022 -0.4271 -0.6080  1.1600
 1703SOL    HW3 6811   4.566   2.414   3.004  0.4380  0.2956 -1.2999
 1703SOL    MW4 6812   4.495   2.461   2.985 -0.0448  0.0509 -0.1335
 1704SOL     OW 6813   4.472   2.723   3.133 -0.0665 -0.6861 -0.1648
 1704SOL    HW2 6814   4.486   2.728   3.228 -0.8649 -2.8637  0.0875
 1704SOL    HW3 6815   4.552   2.761   3.096  1.0398 -1.4207  1.3810
 1704SOL    MW4 6816   4.485   2.729   3.140 -0.0259 -1.0703  0.0725
 1705SOL     OW 6817   0.215   2.838   3.011 -0.0368 -0.6322 -0.1692
 1705SOL    HW2 6818   0.297   2.807   3.050  1.1343 -0.5959 -2.5057
 1705SOL    HW3 6819   0.229   2.829   2.916 -2.0833  1.0153 -0.6584
 1705SOL    MW4 6820   0.228   2.833   3.003 -0.1523 -0.4101 -0.5420
 1706SOL     OW 6821   0.203   3.104   3.110 -0.2090 -0.0329  0.0116
 1706SOL    HW2 6822   0.125   3.149   3.078 -1.8833 -2.3448  0.6763
 1706SOL    HW3 6823   0.200   3.018   3.068  2.5419  0.1856 -0.7094
 1706SOL    MW4 6824   0.193   3.098   3.100 -0.0670 -0.3091  0.0042
 1707SOL     OW 6825   4.468   3.228   3.030  0.4159  0.0960  0.0388
 1707SOL    HW2 6826   4.406   3.166   3.069 -0.4990  0.6139 -0.5737
 1707SOL    HW3 6827   4.464   3.210   2.936  1.4396 -0.0820  0.0265
 1707SOL    MW4 6828   4.459   3.218   3.023  0.4302  0.1408 -0.0437
 1708SOL     OW 6829   0.021   3.486   3.133 -0.0814  0.2591  0.1529
 1708SOL    HW2 6830  -0.042   3.543   3.088  0.3358  0.3788 -0.2921
 1708SOL    HW3 6831   0.007   3.400   3.096  0.8676  0.5263 -0.8762
 1708SOL    MW4 6832   0.011   3.482   3.122  0.0989  0.3102 -0.0416
 1709SOL     OW 6833   0.257   3.594   3.031  0.7520 -0.0154  0.1528
 1709SOL    HW2 6834   0.248   3.689   3.041  1.7488 -0.1034  2.0087
 1709SOL    HW3 6835   0.178   3.558   3.073  0.7756 -0.0451  0.1713
 1709SOL    MW4 6836   0.245   3.602   3.038  0.8866 -0.0309  0.4001
 1710SOL     OW 6837   0.253   3.865   3.092 -0.1224 -0.3631 -0.2785
 1710SOL    HW2 6838   0.242   3.864   3.187 -0.8168  0.6102 -0.3439
 1710SOL    HW3 6839   0.323   3.927   3.075 -2.3462  2.1432 -0.6101
 1710SOL    MW4 6840   0.261   3.873   3.102 -0.5075  0.0960 -0.3309
 1711SOL     OW 6841   0.031   4.035   3.007 -0.0647  0.1795  0.2150
 1711SOL    HW2 6842   0.108   3.981   3.024 -0.7888 -0.5854  1.0905
 1711SOL    HW3 6843   0.017   4.025   2.913 -0.4690 -1.5573  0.4344
 1711SOL    MW4 6844   0.040   4.026   2.997 -0.2136 -0.1506  0.3595
 1712SOL     OW 6845   0.005   4.287   3.104  0.2303 -0.1616 -0.3495
 1712SOL    HW2 6846   0.003   4.250   3.192  2.2125 -0.7053 -0.5151
 1712SOL    HW3 6847   0.006   4.211   3.046  0.3544  0.1841 -0.8052
 1712SOL    MW4 6848   0.005   4.272   3.108  0.5082 -0.1877 -0.4315
 1713SOL     OW 6849   0.241   4.410   3.027 -0.0289 -0.3985 -0.3919
 1713SOL    HW2 6850   0.163   4.365   3.060  0.1229 -0.1632  0.2839
 1713SOL    HW3 6851   0.237   4.497   3.066  0.1985 -0.1432 -0.9266
 1713SOL    MW4 6852   0.230   4.416   3.036  0.0211 -0.3338 -0.3733
 1714SOL     OW 6853   0.650   0.000   3.163  0.6243  0.0787  0.2564
 1714SOL    HW2 6854   0.677  -0.083   3.124 -0.6581 -0.0561 -0.3789
 1714SOL    HW3 6855   0.573   0.026   3.112 -0.1989  0.6369  1.7616
 1714SOL    MW4 6856   0.644  -0.007   3.151  0.3465  0.1345  0.3712
 1715SOL     OW 6857   0.451   0.125   3.013  0.0031  0.4850 -0.1044
 1715SOL    HW2 6858   0.464   0.207   3.061 -1.5248  0.9419 -0.4376
 1715SOL    HW3 6859   0.372   0.087   3.052  0.3221 -0.5007 -0.4031
 1715SOL    MW4 6860   0.443   0.131   3.024 -0.1564  0.4152 -0.1878
 1716SOL     OW 6861   0.456   0.369   3.131 -0.1203  0.0506 -0.1644
 1716SOL    HW2 6862   0.446   0.391   3.224 -0.6926  2.9302 -0.8584
 1716SOL    HW3 6863   0.532   0.419   3.103 -0.0857 -0.6325 -1.3217
 1716SOL    MW4 6864   0.465   0.378   3.140 -0.1912  0.3404 -0.4087
 1717SOL     OW 6865   0.678   0.519   3.036 -0.4783  0.2277 -0.1633
 1717SOL    HW2 6866   0.755   0.470   3.067  0.1428  0.8561 -0.6849
 1717SOL    HW3 6867   0.694   0.609   3.065 -1.0594  0.3465 -0.2142
 1717SOL    MW4 6868   0.690   0.524   3.044 -0.4730  0.3263 -0.2389
 1718SOL     OW 6869   0.699   0.793   3.117 -0.1654  0.3972  0.0209
 1718SOL    HW2 6870   0.679   0.782   3.210 -1.8339  0.1873 -0.3404
 1718SOL    HW3 6871   0.620   0.833   3.081 -0.0675 -0.8178 -1.5687
 1718SOL    MW4 6872   0.686   0.797   3.125 -0.3726  0.2092 -0.2365
 1719SOL     OW 6873   0.474   0.883   3.000  0.5076 -0.1259 -0.0509
 1719SOL    HW2 6874   0.395   0.843   3.036  0.2434  0.9740  0.6159
 1719SOL    HW3 6875   0.460   0.883   2.905 -0.8675  1.2212  0.1319
 1719SOL    MW4 6876   0.462   0.878   2.992  0.2913  0.1969  0.0612
 1720SOL     OW 6877   0.442   1.130   3.110 -0.2996 -0.2616 -0.1144
 1720SOL    HW2 6878   0.443   1.042   3.072  0.5815  0.3102 -1.4678
 1720SOL    HW3 6879   0.359   1.168   3.081 -0.6421 -0.6137  0.4014
 1720SOL    MW4 6880   0.431   1.123   3.101 -0.2285 -0.2326 -0.2249
 1721SOL     OW 6881   0.685   1.242   3.055 -0.0193  0.0962 -0.2582
 1721SOL    HW2 6882   0.741   1.183   3.105 -0.5991 -0.9600 -0.8391
 1721SOL    HW3 6883   0.599   1.201   3.057 -0.5796  1.2489 -0.1364
 1721SOL    MW4 6884   0.681   1.229   3.062 -0.1697  0.1089 -0.3188
 1722SOL     OW 6885   0.732   1.500   3.156  0.0094 -0.0611  0.1725
 1722SOL    HW2 6886   0.733   1.507   3.251 -1.1083  0.5371  0.1433
 1722SOL    HW3 6887   0.718   1.406   3.139 -1.8258  0.1080  0.6157
 1722SOL    MW4 6888   0.730   1.488   3.166 -0.3802  0.0401  0.2271
 1723SOL     OW 6889   0.543   1.640   2.987 -0.0750 -0.2300 -0.3246
 1723SOL    HW2 6890   0.604   1.589   3.039  0.0666  0.0781 -0.1861
 1723SOL    HW3 6891   0.456   1.608   3.013 -0.0192  0.1233  0.3249
 1723SOL    MW4 6892   0.539   1.629   2.998 -0.0490 -0.1427 -0.2206
 1724SOL     OW 6893   0.503   1.915   3.109 -0.0348  0.0520 -0.1142
 1724SOL    HW2 6894   0.503   1.835   3.058  0.2834  0.3629 -0.6063
 1724SOL    HW3 6895   0.421   1.959   3.085 -0.4545 -0.3653  0.5397
 1724SOL    MW4 6896   0.492   1.911   3.099 -0.0482  0.0380 -0.0929
 1725SOL     OW 6897   0.716   2.041   2.964 -0.3201 -0.2277 -0.4318
 1725SOL    HW2 6898   0.780   1.982   3.004 -0.0135  0.1507 -0.3652
 1725SOL    HW3 6899   0.636   2.029   3.016  0.3913  1.0712  0.9970
 1725SOL    MW4 6900   0.714   2.032   2.976 -0.1858 -0.0064 -0.2345
 1726SOL     OW 6901   0.724   2.295   3.103 -0.3609  0.0317 -0.1206
 1726SOL    HW2 6902   0.715   2.281   3.197 -0.2645 -0.5168 -0.1935
 1726SOL    HW3 6903   0.741   2.208   3.067 -0.2293  0.2650 -0.6256
 1726SOL    MW4 6904   0.725   2.282   3.111 -0.3308 -0.0099 -0.1969
 1727SOL     OW 6905   0.492   2.446   3.039  0.2906  0.7241  0.1628
 1727SOL    HW2 6906   0.562   2.397   3.081  0.5106  2.5124  1.9748
 1727SOL    HW3 6907   0.504   2.430   2.945  1.0201 -1.7138  0.6600
 1727SOL    MW4 6908   0.503   2.438   3.032  0.4159  0.6384  0.4674
 1728SOL     OW 6909   0.445   2.714   3.091  0.1614 -0.4146  0.0268
 1728SOL    HW2 6910   0.527   2.757   3.065  0.4895 -1.0758 -0.0491
 1728SOL    HW3 6911   0.457   2.622   3.066 -0.7080 -0.4681 -0.2151
 1728SOL    MW4 6912   0.458   2.707   3.084  0.0899 -0.5089 -0.0152
 1729SOL     OW 6913   0.687   2.825   3.042 -0.1811 -0.0602  0.2498
 1729SOL    HW2 6914   0.756   2.774   3.084 -1.0430 -1.4241  0.0459
 1729SOL    HW3 6915   0.701   2.915   3.073  0.7971 -0.5772  1.3420
 1729SOL    MW4 6916   0.698   2.830   3.051 -0.1658 -0.3084  0.3670
 1730SOL     OW 6917   0.699   3.082   3.114 -0.1689 -0.3838 -0.2256
 1730SOL    HW2 6918   0.676   3.083   3.207  0.0471 -0.4310 -0.1734
 1730SOL    HW3 6919   0.619   3.113   3.070 -0.1271  0.0664  0.0062
 1730SOL    MW4 6920   0.685   3.086   3.121 -0.1349 -0.3307 -0.1881
 1731SOL     OW 6921   0.454   3.175   3.044 -0.1758 -0.4276  0.3466
 1731SOL    HW2 6922   0.452   3.268   3.065 -0.9748 -0.4737  0.5142
 1731SOL    HW3 6923   0.365   3.145   3.063  0.2899 -1.3891  1.0787
 1731SOL    MW4 6924   0.442   3.183   3.050 -0.2198 -0.5605  0.4653
 1732SOL     OW 6925   0.479   3.443   3.084  0.3162 -0.3898  0.5326
 1732SOL    HW2 6926   0.480   3.443   3.180 -1.9846 -1.9988  0.5975
 1732SOL    HW3 6927   0.396   3.484   3.061  0.5257 -0.6857 -0.7680
 1732SOL    MW4 6928   0.468   3.448   3.094  0.0403 -0.6411  0.3696
 1733SOL     OW 6929   0.699   3.593   3.015  0.2559 -0.6107 -0.0847
 1733SOL    HW2 6930   0.770   3.547   3.060 -0.5883 -1.4739  0.3889
 1733SOL    HW3 6931   0.622   3.538   3.030 -0.4451  0.1492 -0.8692
 1733SOL    MW4 6932   0.698   3.579   3.023  0.0520 -0.6243 -0.1257
 1734SOL     OW 6933   0.664   3.845   3.135  0.4878  0.1707 -0.3427
 1734SOL    HW2 6934   0.672   3.837   3.230 -1.7331 -0.3005 -0.1611
 1734SOL    HW3 6935   0.659   3.755   3.103 -1.3312  0.3556 -0.6289
 1734SOL    MW4 6936   0.664   3.832   3.143 -0.0452  0.1330 -0.3565
 1735SOL     OW 6937   0.472   4.017   3.017 -0.0468 -0.0955  0.1026
 1735SOL    HW2 6938   0.537   3.951   3.042 -0.1148  0.2140  1.1032
 1735SOL    HW3 6939   0.475   4.018   2.921  1.4343 -0.0825  0.1376
 1735SOL    MW4 6940   0.481   4.008   3.007  0.1397 -0.0529  0.2392
 1736SOL     OW 6941   0.489   4.276   3.109 -0.2588 -0.0516  0.1760
 1736SOL    HW2 6942   0.481   4.185   3.083  0.4374  0.0069 -0.2560
 1736SOL    HW3 6943   0.404   4.315   3.087  0.1607 -0.1023 -1.6061
 1736SOL    MW4 6944   0.476   4.269   3.103 -0.1116 -0.0506 -0.1161
 1737SOL     OW 6945   0.732   4.412   3.034  0.1968  0.0273  0.0418
 1737SOL    HW2 6946   0.649   4.376   3.065 -0.5616  1.4999 -0.2242
 1737SOL    HW3 6947   0.726   4.409   2.939  0.0400  1.0400  0.0170
 1737SOL    MW4 6948   0.720   4.407   3.026  0.0761  0.3552  0.0034
 1738SOL     OW 6949   1.118   4.628   3.121  0.1716 -0.0335 -0.1808
 1738SOL    HW2 6950   1.182   4.685   3.078 -0.4451 -1.1744 -2.7000
 1738SOL    HW3 6951   1.033   4.665   3.098 -0.1715 -0.7015 -0.0138
 1738SOL    MW4 6952   1.115   4.640   3.112  0.0449 -0.2721 -0.4912
 1739SOL     OW 6953   0.885   0.109   3.044 -0.2997 -0.1411  0.1654
 1739SOL    HW2 6954   0.866   0.201   3.062 -0.5498 -0.0463 -0.5567
 1739SOL    HW3 6955   0.811   0.061   3.080 -1.0444  0.0855 -1.0560
 1739SOL    MW4 6956   0.873   0.115   3.051 -0.4310 -0.0987 -0.0910
 1740SOL     OW 6957   0.894   0.365   3.122  0.1136  0.2468  0.2403
 1740SOL    HW2 6958   0.896   0.359   3.217  1.0284 -0.8709  0.1569
 1740SOL    HW3 6959   0.983   0.390   3.098  0.1550 -0.5055 -0.3908
 1740SOL    MW4 6960   0.906   0.367   3.131  0.2397  0.0001  0.1460
 1741SOL     OW 6961   1.136   0.450   3.002 -0.3354  0.0764 -0.3767
 1741SOL    HW2 6962   1.216   0.411   3.037 -0.9553 -0.6069  0.3253
 1741SOL    HW3 6963   1.154   0.464   2.909  0.9992  1.0082  0.0227
 1741SOL    MW4 6964   1.149   0.447   2.994 -0.2411  0.1092 -0.2314
 1742SOL     OW 6965   1.176   0.701   3.090 -0.0862  0.2075 -0.2320
 1742SOL    HW2 6966   1.155   0.716   3.182 -0.0480  1.7971 -0.4650
 1742SOL    HW3 6967   1.162   0.607   3.077  0.2197 -0.0860  1.4663
 1742SOL    MW4 6968   1.171   0.691   3.100 -0.0408  0.3785 -0.0386
 1743SOL     OW 6969   0.955   0.864   2.990  0.0291  0.4608 -0.0980
 1743SOL    HW2 6970   1.030   0.810   3.015  0.6027  0.9070 -0.8229
 1743SOL    HW3 6971   0.884   0.835   3.048  0.7809  0.0928  0.6580
 1743SOL    MW4 6972   0.956   0.853   3.001  0.2040  0.4711 -0.0939
 1744SOL     OW 6973   0.944   1.097   3.130 -0.1457 -0.0536  0.5032
 1744SOL    HW2 6974   0.997   1.164   3.087 -0.5202 -0.5356 -0.7353
 1744SOL    HW3 6975   0.957   1.018   3.076  0.3418 -0.9909  1.9696
 1744SOL    MW4 6976   0.953   1.095   3.117 -0.1308 -0.2409  0.5333
 1745SOL     OW 6977   1.129   1.240   2.986  0.0667 -0.5740 -0.1404
 1745SOL    HW2 6978   1.207   1.194   3.017 -0.0889 -0.9978 -0.3742
 1745SOL    HW3 6979   1.124   1.219   2.893 -0.0670 -0.1695 -0.2266
 1745SOL    MW4 6980   1.139   1.231   2.978  0.0286 -0.5765 -0.1826
 1746SOL     OW 6981   1.184   1.481   3.099  0.4361  0.1093 -0.0612
 1746SOL    HW2 6982   1.261   1.524   3.062  0.2146 -0.3925 -1.1093
 1746SOL    HW3 6983   1.175   1.400   3.050 -0.8217  0.2061 -0.0137
 1746SOL    MW4 6984   1.193   1.476   3.088  0.2409  0.0559 -0.1932
 1747SOL     OW 6985   0.947   1.622   3.036  0.7912 -0.3062 -0.6057
 1747SOL    HW2 6986   1.027   1.575   3.059  0.6025  0.3621  1.5884
 1747SOL    HW3 6987   0.876   1.565   3.065  0.5690  1.6713  3.0060
 1747SOL    MW4 6988   0.948   1.609   3.043  0.7370  0.0429  0.1603
 1748SOL     OW 6989   0.918   1.886   3.108  0.6807  0.0465 -0.2848
 1748SOL    HW2 6990   0.926   1.891   3.203 -1.3041  1.5246 -0.1793
 1748SOL    HW3 6991   0.937   1.794   3.087  0.7661 -0.3762  1.5599
 1748SOL    MW4 6992   0.922   1.874   3.118  0.4301  0.1858 -0.0275
 1749SOL     OW 6993   1.111   2.050   2.998 -0.0101  0.0407 -0.2034
 1749SOL    HW2 6994   1.036   1.994   3.020 -0.3116  0.8678  0.8917
 1749SOL    HW3 6995   1.100   2.067   2.904 -0.6740 -0.6131 -0.2528
 1749SOL    MW4 6996   1.099   2.045   2.988 -0.1375  0.0636 -0.0654
 1750SOL     OW 6997   1.154   2.319   3.108 -0.1472 -0.2367 -0.0654
 1750SOL    HW2 6998   1.079   2.361   3.067 -0.0440  0.4118  0.3980
 1750SOL    HW3 6999   1.141   2.225   3.093 -0.9801 -0.1132 -0.0962
 1750SOL    MW4 7000   1.143   2.312   3.101 -0.2435 -0.1348 -0.0083
 1751SOL     OW 7001   0.931   2.442   2.999  0.5155 -0.5427 -0.5052
 1751SOL    HW2 7002   0.868   2.378   3.030  1.5746 -1.0656  0.5891
 1751SOL    HW3 7003   0.935   2.428   2.904 -1.0681 -0.4321 -0.6025
 1751SOL    MW4 7004   0.924   2.432   2.991  0.4463 -0.5971 -0.3737
 1752SOL     OW 7005   0.913   2.687   3.136  0.2807 -0.1789 -0.0044
 1752SOL    HW2 7006   0.905   2.669   3.230  1.7539 -0.0292  0.1704
 1752SOL    HW3 7007   0.916   2.601   3.095  1.5273 -0.2858  0.2801
 1752SOL    MW4 7008   0.912   2.673   3.143  0.6396 -0.1733  0.0562
 1753SOL     OW 7009   1.147   2.856   3.010 -0.0547  0.1720 -0.2127
 1753SOL    HW2 7010   1.140   2.944   3.047 -0.9566 -0.4446  1.1071
 1753SOL    HW3 7011   1.068   2.811   3.040 -0.1760 -0.7345 -1.8579
 1753SOL    MW4 7012   1.136   2.862   3.019 -0.1897 -0.0289 -0.2556
 1754SOL     OW 7013   1.138   3.120   3.089  0.1495  0.2998 -0.0080
 1754SOL    HW2 7014   1.213   3.171   3.058  0.5065 -0.2875 -0.1234
 1754SOL    HW3 7015   1.062   3.164   3.053  0.4550  0.7650 -0.0892
 1754SOL    MW4 7016   1.138   3.132   3.080  0.2369  0.2837 -0.0340
 1755SOL     OW 7017   0.902   3.234   3.017 -0.0483 -1.0433  0.2383
 1755SOL    HW2 7018   0.829   3.186   3.056 -0.5359 -1.9426 -1.6845
 1755SOL    HW3 7019   0.902   3.206   2.925  1.7203  0.1670 -0.1551
 1755SOL    MW4 7020   0.892   3.224   3.010  0.1207 -1.0023 -0.0673
 1756SOL     OW 7021   0.924   3.470   3.155  0.1201  0.3298  0.0092
 1756SOL    HW2 7022   1.001   3.520   3.127 -0.2071  1.3785  0.9217
 1756SOL    HW3 7023   0.931   3.386   3.110  2.2815  0.0711  0.7949
 1756SOL    MW4 7024   0.935   3.466   3.145  0.3621  0.4340  0.2333
 1757SOL     OW 7025   1.107   3.645   3.040 -0.0591 -0.1256  0.2470
 1757SOL    HW2 7026   1.195   3.611   3.059  0.4048  1.0355  0.1905
 1757SOL    HW3 7027   1.108   3.734   3.075 -0.2257  0.9663 -2.4001
 1757SOL    MW4 7028   1.119   3.652   3.047 -0.0199  0.1717 -0.1097
 1758SOL     OW 7029   1.148   3.895   3.136  0.4423  0.3139 -0.0888
 1758SOL    HW2 7030   1.136   3.917   3.228  0.7653  1.1668 -0.2426
 1758SOL    HW3 7031   1.070   3.930   3.093 -0.4430 -1.4158  0.0595
 1758SOL    MW4 7032   1.136   3.903   3.143  0.3681  0.1982 -0.0895
 1759SOL     OW 7033   0.896   3.981   3.035  0.5299  0.4331 -0.3042
 1759SOL    HW2 7034   0.812   3.943   3.062  0.2498  2.2616  1.4785
 1759SOL    HW3 7035   0.890   3.985   2.939 -1.9703  1.6743 -0.1611
 1759SOL    MW4 7036   0.884   3.977   3.026  0.1631  0.8381 -0.0501
 1760SOL     OW 7037   0.913   4.234   3.143  0.0413  0.2502  0.1209
 1760SOL    HW2 7038   0.896   4.154   3.093  1.7750 -0.8215  1.1842
 1760SOL    HW3 7039   0.855   4.300   3.104 -1.3397 -1.4935 -0.8347
 1760SOL    MW4 7040   0.903   4.232   3.131  0.0878 -0.1212  0.1351
 1761SOL     OW 7041   1.122   4.373   3.023 -0.4174  0.2485 -0.2610
 1761SOL    HW2 7042   1.039   4.330   3.042 -0.5981  0.6984 -0.0387
 1761SOL    HW3 7043   1.116   4.458   3.067 -0.0830  0.5246 -0.7465
 1761SOL    MW4 7044   1.110   4.378   3.031 -0.3971  0.3443 -0.2957
 1762SOL     OW 7045   1.565   4.664   3.055 -0.1598  0.6304  0.2899
 1762SOL    HW2 7046   1.549   4.677   3.149 -2.0044 -1.9476  0.3801
 1762SOL    HW3 7047   1.485   4.696   3.012  0.1775  0.6766 -0.3072
 1762SOL    MW4 7048   1.552   4.670   3.062 -0.3587  0.2964  0.2230
 1763SOL     OW 7049   1.310   0.101   3.001 -0.2709  0.1382  0.1491
 1763SOL    HW2 7050   1.345   0.182   3.037 -1.4095  1.0969 -0.8565
 1763SOL    HW3 7051   1.301   0.119   2.907  1.2531 -1.7983 -0.3907
 1763SOL    MW4 7052   1.313   0.114   2.993 -0.2201  0.0092 -0.0548
 1764SOL     OW 7053   1.372   0.324   3.112  0.2617  0.0476 -0.3428
 1764SOL    HW2 7054   1.388   0.336   3.206  1.5197  1.2794 -0.6942
 1764SOL    HW3 7055   1.442   0.373   3.069  0.9382 -2.2475 -1.9469
 1764SOL    MW4 7056   1.383   0.332   3.119  0.5170 -0.0927 -0.6008
 1765SOL     OW 7057   1.576   0.458   2.990  0.0667  0.5697  0.4175
 1765SOL    HW2 7058   1.576   0.550   3.019 -0.2121  1.1684 -1.4384
 1765SOL    HW3 7059   1.577   0.463   2.895 -0.6533 -1.3677  0.2911
 1765SOL    MW4 7060   1.576   0.471   2.981 -0.0651  0.3931  0.1560
 1766SOL     OW 7061   1.622   0.712   3.077 -0.3578  0.0533  0.3494
 1766SOL    HW2 7062   1.611   0.721   3.172  0.1465 -2.1992  0.6458
 1766SOL    HW3 7063   1.544   0.753   3.040 -0.4778  1.1092  1.7251
 1766SOL    MW4 7064   1.611   0.719   3.085 -0.3071 -0.1046  0.5700
 1767SOL     OW 7065   1.390   0.867   3.011  0.1331  0.0548  0.3168
 1767SOL    HW2 7066   1.383   0.950   3.057  0.0145 -0.2592  0.8731
 1767SOL    HW3 7067   1.318   0.814   3.046  0.5466 -0.4716  0.3742
 1767SOL    MW4 7068   1.379   0.871   3.022  0.1720 -0.0561  0.3977
 1768SOL     OW 7069   1.353   1.129   3.092 -0.3564 -0.2475  0.4186
 1768SOL    HW2 7070   1.352   1.140   3.187 -0.6243  0.1919  0.3654
 1768SOL    HW3 7071   1.435   1.169   3.063 -0.9869  0.9706  0.3034
 1768SOL    MW4 7072   1.363   1.136   3.100 -0.4750 -0.0288  0.3963
 1769SOL     OW 7073   1.597   1.236   3.008 -0.0538 -0.5378 -0.1645
 1769SOL    HW2 7074   1.672   1.197   3.053 -0.0923 -1.5251 -0.9311
 1769SOL    HW3 7075   1.598   1.328   3.034  0.3153 -0.9418  1.3197
 1769SOL    MW4 7076   1.607   1.243   3.018 -0.0102 -0.7214 -0.0698
 1770SOL     OW 7077   1.605   1.499   3.114 -0.1264  0.1005 -0.2282
 1770SOL    HW2 7078   1.685   1.547   3.095  0.4378  0.6170  3.1240
 1770SOL    HW3 7079   1.536   1.550   3.072  0.8443  2.1112  0.5268
 1770SOL    MW4 7080   1.606   1.512   3.106  0.0761  0.4339  0.3137
 1771SOL     OW 7081   1.397   1.624   3.010 -0.0485 -0.8197 -0.1274
 1771SOL    HW2 7082   1.379   1.708   3.052  0.3904 -0.5904 -0.3907
 1771SOL    HW3 7083   1.371   1.636   2.919  1.3951 -0.4792 -0.5189
 1771SOL    MW4 7084   1.392   1.636   3.003  0.1998 -0.7445 -0.2138
 1772SOL     OW 7085   1.338   1.890   3.087 -0.1619  0.4901 -0.0008
 1772SOL    HW2 7086   1.340   1.898   3.182  0.7438  0.7741 -0.0430
 1772SOL    HW3 7087   1.267   1.948   3.059  0.5135  1.5152  0.3874
 1772SOL    MW4 7088   1.329   1.898   3.096  0.0467  0.6628  0.0448
 1773SOL     OW 7089   1.558   2.079   3.014 -0.1461 -0.5537 -0.2038
 1773SOL    HW2 7090   1.486   2.019   3.030  0.7244 -1.1145  1.8565
 1773SOL    HW3 7091   1.577   2.071   2.921 -1.8691 -1.3805 -0.4862
 1773SOL    MW4 7092   1.551   2.070   3.004 -0.2586 -0.7368  0.0308
 1774SOL     OW 7093   1.574   2.324   3.127  0.2917  0.5251  0.3576
 1774SOL    HW2 7094   1.507   2.369   3.077  0.2019  0.5573  0.5074
 1774SOL    HW3 7095   1.566   2.232   3.101  1.9936  0.9250 -1.6860
 1774SOL    MW4 7096   1.564   2.318   3.117  0.5044  0.5821  0.1077
 1775SOL     OW 7097   1.380   2.472   2.987  0.0604  0.3257  0.4443
 1775SOL    HW2 7098   1.303   2.426   3.021 -0.2675  0.8867  0.4730
 1775SOL    HW3 7099   1.381   2.452   2.894 -0.0300  0.1877  0.4727
 1775SOL    MW4 7100   1.370   2.464   2.979  0.0052  0.3815  0.4518
 1776SOL     OW 7101   1.361   2.732   3.107 -0.3712 -0.1436  0.4221
 1776SOL    HW2 7102   1.360   2.645   3.069 -0.8690  0.0665 -0.0558
 1776SOL    HW3 7103   1.290   2.779   3.063  0.7250  0.8969 -0.2839
 1776SOL    MW4 7104   1.352   2.727   3.096 -0.2922  0.0214  0.2659
 1777SOL     OW 7105   1.546   2.864   2.981  0.0872 -0.2916 -0.2590
 1777SOL    HW2 7106   1.622   2.815   3.013  0.3551 -0.0403 -0.4987
 1777SOL    HW3 7107   1.471   2.822   3.022  0.4010 -0.1798  0.4273
 1777SOL    MW4 7108   1.546   2.852   2.991  0.1639 -0.2437 -0.2000
 1778SOL     OW 7109   1.563   3.112   3.119  0.2290  0.6959 -0.1073
 1778SOL    HW2 7110   1.548   3.093   3.211 -1.5964 -0.1158 -0.5552
 1778SOL    HW3 7111   1.559   3.026   3.076  0.5160  1.1350 -1.0201
 1778SOL    MW4 7112   1.561   3.098   3.125  0.0261  0.6467 -0.2868
 1779SOL     OW 7113   1.365   3.250   3.019  0.2473 -0.0560  0.2109
 1779SOL    HW2 7114   1.447   3.217   3.054  1.3157 -0.0949 -2.2593
 1779SOL    HW3 7115   1.371   3.237   2.925 -2.9520 -0.8344  0.0359
 1779SOL    MW4 7116   1.377   3.244   3.011 -0.0338 -0.1638 -0.1381
 1780SOL     OW 7117   1.345   3.509   3.133 -0.3938  0.3448 -0.0755
 1780SOL    HW2 7118   1.359   3.487   3.225  1.3641 -0.4288 -0.5038
 1780SOL    HW3 7119   1.345   3.424   3.088 -0.2664  0.7756 -0.9057
 1780SOL    MW4 7120   1.347   3.495   3.139 -0.1450  0.2995 -0.2415
 1781SOL     OW 7121   1.594   3.591   3.014  0.1839  0.2271  0.2537
 1781SOL    HW2 7122   1.505   3.572   3.045  0.3872  0.2096  0.8394
 1781SOL    HW3 7123   1.587   3.589   2.919 -0.6418  1.1129  0.2856
 1781SOL    MW4 7124   1.581   3.589   3.005  0.1018  0.3417  0.3351
 1782SOL     OW 7125   1.591   3.870   3.112 -0.2121  0.3480  0.1600
 1782SOL    HW2 7126   1.669   3.912   3.075 -1.2582  2.0015 -0.2225
 1782SOL    HW3 7127   1.602   3.777   3.092  1.0041  0.7448 -1.1141
 1782SOL    MW4 7128   1.603   3.863   3.104 -0.1897  0.6185 -0.0586
 1783SOL     OW 7129   1.362   3.985   3.002  0.2470 -0.1495 -0.3558
 1783SOL    HW2 7130   1.442   3.943   3.032 -0.3023 -0.8516  0.1581
 1783SOL    HW3 7131   1.292   3.940   3.050 -0.3830  1.1441 -0.0442
 1783SOL    MW4 7132   1.363   3.973   3.012  0.0914 -0.0715 -0.2469
 1784SOL     OW 7133   1.355   4.252   3.094 -0.1841 -0.3069 -0.0728
 1784SOL    HW2 7134   1.350   4.165   3.055 -0.3347 -0.9072  1.2550
 1784SOL    HW3 7135   1.274   4.296   3.068 -1.0613 -1.2941  0.9409
 1784SOL    MW4 7136   1.344   4.246   3.085 -0.3197 -0.5163  0.2361
 1785SOL     OW 7137   1.564   4.388   2.972  0.3568  0.2767 -0.4177
 1785SOL    HW2 7138   1.480   4.351   2.998 -0.4452  0.9650 -1.9399
 1785SOL    HW3 7139   1.555   4.482   2.989  0.8014  0.3576 -0.6312
 1785SOL    MW4 7140   1.552   4.395   2.978  0.3096  0.3782 -0.6467
 1786SOL     OW 7141   2.026   4.633   3.101  0.1210 -0.1428  0.2154
 1786SOL    HW2 7142   2.020   4.656   3.194  0.9052  1.4790 -0.1252
 1786SOL    HW3 7143   1.950   4.675   3.061  0.4699  0.2206 -0.0742
 1786SOL    MW4 7144   2.015   4.642   3.108  0.2705  0.1191  0.1323
 1787SOL     OW 7145   1.810   0.086   2.993  0.2615  0.4216  0.1872
 1787SOL    HW2 7146   1.726   0.046   3.014  0.6789 -1.1172 -0.9630
 1787SOL    HW3 7147   1.810   0.093   2.897  2.2628 -1.5324 -0.0080
 1787SOL    MW4 7148   1.799   0.082   2.983  0.5806 -0.0392  0.0097
 1788SOL     OW 7149   1.789   0.351   3.111  0.1996 -0.0840  0.4027
 1788SOL    HW2 7150   1.788   0.256   3.096  0.2456 -0.0222  0.0135
 1788SOL    HW3 7151   1.715   0.384   3.061  1.3401  0.3250 -1.0484
 1788SOL    MW4 7152   1.779   0.342   3.103  0.3561 -0.0219  0.1599
 1789SOL     OW 7153   2.006   0.500   3.041 -0.1242 -0.5070  0.2387
 1789SOL    HW2 7154   1.925   0.450   3.055  0.3010 -1.3691 -0.3222
 1789SOL    HW3 7155   2.018   0.499   2.946  1.0631 -1.2380  0.3857
 1789SOL    MW4 7156   1.997   0.493   3.030  0.0886 -0.7172  0.1841
 1790SOL     OW 7157   2.059   0.764   3.103  0.0915  0.4001  0.1077
 1790SOL    HW2 7158   1.980   0.806   3.068 -0.4046  0.5558  1.3917
 1790SOL    HW3 7159   2.044   0.670   3.090  0.3541  0.4998 -0.9961
 1790SOL    MW4 7160   2.047   0.757   3.097  0.0607  0.4338  0.1314
 1791SOL     OW 7161   1.833   0.876   2.997 -0.5434  0.4460 -0.1649
 1791SOL    HW2 7162   1.753   0.826   3.013  0.4204 -1.3094 -0.6434
 1791SOL    HW3 7163   1.836   0.887   2.901  1.0785 -1.7995 -0.4235
 1791SOL    MW4 7164   1.823   0.871   2.986 -0.2022 -0.0819 -0.2621
 1792SOL     OW 7165   1.812   1.130   3.110  0.6821 -0.1566  0.2372
 1792SOL    HW2 7166   1.807   1.115   3.205 -0.3878 -1.0347  0.0538
 1792SOL    HW3 7167   1.804   1.042   3.072  1.1862  0.1903 -0.6627
 1792SOL    MW4 7168   1.810   1.116   3.118  0.6074 -0.2267  0.0943
 1793SOL     OW 7169   2.064   1.289   3.017  0.2730 -0.0112  0.2126
 1793SOL    HW2 7170   2.129   1.224   3.043 -0.4582 -1.0980 -0.6167
 1793SOL    HW3 7171   1.982   1.257   3.053  0.3456  1.9221  2.1804
 1793SOL    MW4 7172   2.062   1.277   3.025  0.1861  0.1005  0.3628
 1794SOL     OW 7173   2.081   1.552   3.124 -0.2068 -0.1179 -0.0585
 1794SOL    HW2 7174   2.053   1.547   3.216 -2.7671  0.7009 -0.7700
 1794SOL    HW3 7175   2.100   1.462   3.100 -0.2078 -0.4325  1.0583
 1794SOL    MW4 7176   2.080   1.540   3.133 -0.5447 -0.0514 -0.0050
 1795SOL     OW 7177   1.825   1.640   3.042  0.4330  0.2368 -0.8452
 1795SOL    HW2 7178   1.825   1.729   3.077 -0.7278  0.2317 -0.8339
 1795SOL    HW3 7179   1.907   1.602   3.075  0.1689  0.7755  0.4733
 1795SOL    MW4 7180   1.836   1.647   3.051  0.2450  0.3072 -0.6697
 1796SOL     OW 7181   1.782   1.910   3.098  0.4947 -0.6899 -0.1609
 1796SOL    HW2 7182   1.862   1.946   3.061  0.1971 -1.7482 -1.8668
 1796SOL    HW3 7183   1.713   1.970   3.069  0.5549 -0.1840  0.7070
 1796SOL    MW4 7184   1.783   1.923   3.090  0.4634 -0.7628 -0.2714
 1797SOL     OW 7185   2.007   2.033   3.016  0.2908  0.2868 -0.1090
 1797SOL    HW2 7186   2.084   2.006   3.067 -0.6265 -0.0802  1.0841
 1797SOL    HW3 7187   1.994   2.125   3.039  0.0702  0.2082  0.0865
 1797SOL    MW4 7188   2.016   2.042   3.026  0.1407  0.2280  0.0742
 1798SOL     OW 7189   2.017   2.312   3.102  0.3583 -0.0552 -0.0178
 1798SOL    HW2 7190   2.103   2.345   3.077  0.5019 -0.0391  0.4982
 1798SOL    HW3 7191   1.956   2.381   3.075  0.4955 -0.0990 -0.4492
 1798SOL    MW4 7192   2.020   2.325   3.095  0.3953 -0.0589 -0.0066
 1799SOL     OW 7193   1.815   2.468   3.032  0.2395  0.2971 -0.4422
 1799SOL    HW2 7194   1.795   2.559   3.055  1.0420  0.1922  0.6974
 1799SOL    HW3 7195   1.738   2.418   3.060 -0.7890  0.7658 -2.2784
 1799SOL    MW4 7196   1.802   2.474   3.038  0.2097  0.3451 -0.5341
 1800SOL     OW 7197   1.750   2.713   3.120 -0.2635  0.1051 -0.6897
 1800SOL    HW2 7198   1.748   2.709   3.216  0.0478 -0.2613 -0.6962
 1800SOL    HW3 7199   1.830   2.759   3.099 -0.5577  0.5822 -0.7659
 1800SOL    MW4 7200   1.760   2.718   3.130 -0.2612  0.1197 -0.7006
 1801SOL     OW 7201   1.996   2.817   3.033 -0.7034  0.2115  0.2023
 1801SOL    HW2 7202   1.999   2.903   3.073  1.5980  0.9192 -1.3765
 1801SOL    HW3 7203   1.995   2.834   2.939  0.7220 -1.4624 -0.1560
 1801SOL    MW4 7204   1.996   2.830   3.026 -0.2117  0.0840 -0.0533
 1802SOL     OW 7205   2.000   3.083   3.099 -0.0825  0.4640 -0.2832
 1802SOL    HW2 7206   1.999   3.101   3.194  0.8368 -0.0906 -0.1723
 1802SOL    HW3 7207   1.924   3.131   3.066  0.7125  2.2739  0.4461
 1802SOL    MW4 7208   1.989   3.092   3.107  0.1437  0.6296 -0.1724
 1803SOL     OW 7209   1.788   3.238   3.021 -0.1325 -0.4381  0.1243
 1803SOL    HW2 7210   1.711   3.191   3.054  0.3144 -1.3331 -0.0840
 1803SOL    HW3 7211   1.770   3.252   2.928 -0.4596  0.2024  0.2811
 1803SOL    MW4 7212   1.775   3.234   3.013 -0.1167 -0.4717  0.1175
 1804SOL     OW 7213   1.832   3.486   3.132 -0.0282  0.7149 -0.2583
 1804SOL    HW2 7214   1.825   3.393   3.108  1.0431  0.5621 -0.0033
 1804SOL    HW3 7215   1.765   3.529   3.080 -1.1149 -0.3198  0.2409
 1804SOL    MW4 7216   1.822   3.479   3.122 -0.0302  0.5582 -0.1588
 1805SOL     OW 7217   2.027   3.609   2.989 -0.0050 -0.5534 -0.0948
 1805SOL    HW2 7218   2.029   3.699   3.022 -1.3249  0.2143 -2.0522
 1805SOL    HW3 7219   1.953   3.568   3.034 -0.4157 -0.1791 -0.4332
 1805SOL    MW4 7220   2.018   3.616   2.999 -0.2333 -0.4027 -0.3977
 1806SOL     OW 7221   2.015   3.853   3.139 -0.3629 -0.5833 -0.0067
 1806SOL    HW2 7222   2.018   3.860   3.234 -1.9745  0.0502  0.0156
 1806SOL    HW3 7223   1.948   3.916   3.112  1.9287  1.2074 -1.7981
 1806SOL    MW4 7224   2.007   3.862   3.148 -0.2732 -0.2634 -0.2401
 1807SOL     OW 7225   1.795   4.011   2.997  0.0970 -0.1630 -0.4281
 1807SOL    HW2 7226   1.784   4.102   3.024  0.5144 -0.1667 -0.2432
 1807SOL    HW3 7227   1.792   4.014   2.901 -0.2591 -0.0039 -0.4112
 1807SOL    MW4 7228   1.793   4.023   2.988  0.1051 -0.1425 -0.4014
 1808SOL     OW 7229   1.774   4.253   3.118 -0.1319 -0.2972  0.1496
 1808SOL    HW2 7230   1.850   4.289   3.073 -0.1121 -1.1944 -0.5460
 1808SOL    HW3 7231   1.700   4.303   3.084 -0.1048 -0.8925 -0.8127
 1808SOL    MW4 7232   1.775   4.264   3.108 -0.1258 -0.4941 -0.0691
 1809SOL     OW 7233   2.003   4.372   3.022  0.1759 -0.5784  0.0385
 1809SOL    HW2 7234   2.030   4.462   3.043  1.4780 -1.0226  0.3485
 1809SOL    HW3 7235   1.995   4.372   2.927  2.7252 -0.7763 -0.2222
 1809SOL    MW4 7236   2.006   4.384   3.012  0.6840 -0.6631  0.0450
 1810SOL     OW 7237   2.469   4.608   3.105 -0.1038 -0.3374 -0.3947
 1810SOL    HW2 7238   2.467   4.521   3.065 -0.6495 -0.4577 -0.1116
 1810SOL    HW3 7239   2.398   4.656   3.064 -1.0179 -0.6375  0.8105
 1810SOL    MW4 7240   2.460   4.603   3.095 -0.2964 -0.3929 -0.1984
 1811SOL     OW 7241   2.256   0.077   3.003 -0.4798 -0.3952 -0.4090
 1811SOL    HW2 7242   2.257   0.170   3.028 -1.1017 -0.2095 -1.0498
 1811SOL    HW3 7243   2.171   0.045   3.032 -0.2809 -0.7534 -0.2228
 1811SOL    MW4 7244   2.245   0.085   3.010 -0.5356 -0.4180 -0.4690
 1812SOL     OW 7245   2.239   0.338   3.100  0.5225 -0.0665  0.5974
 1812SOL    HW2 7246   2.224   0.326   3.193 -1.5922 -2.9508 -0.0466
 1812SOL    HW3 7247   2.162   0.383   3.068  0.6028 -0.3302  0.0157
 1812SOL    MW4 7248   2.227   0.342   3.108  0.2541 -0.4818  0.4357
 1813SOL     OW 7249   2.457   0.500   3.032 -0.2945  0.6356 -0.1191
 1813SOL    HW2 7250   2.379   0.452   3.059 -0.4339  1.4642  1.0052
 1813SOL    HW3 7251   2.467   0.480   2.939 -1.8550  0.5289 -0.2789
 1813SOL    MW4 7252   2.448   0.491   3.023 -0.5188  0.7308  0.0082
 1814SOL     OW 7253   2.504   0.758   3.102  0.3902 -0.2903 -0.0109
 1814SOL    HW2 7254   2.584   0.790   3.060 -0.9338  0.7140 -1.8376
 1814SOL    HW3 7255   2.497   0.667   3.073  0.6002 -0.2222 -0.2765
 1814SOL    MW4 7256   2.513   0.750   3.092  0.2432 -0.1488 -0.2870
 1815SOL     OW 7257   2.281   0.862   2.976  0.4076 -0.1061  0.6358
 1815SOL    HW2 7258   2.354   0.826   3.026 -0.3444 -0.5794  1.4215
 1815SOL    HW3 7259   2.204   0.818   3.012 -0.2186  0.0688 -0.4706
 1815SOL    MW4 7260   2.280   0.851   2.987  0.2258 -0.1454  0.5935
 1816SOL     OW 7261   2.261   1.110   3.097  0.0062  0.0268  0.2058
 1816SOL    HW2 7262   2.244   1.113   3.191 -0.0553  0.5113  0.1812
 1816SOL    HW3 7263   2.251   1.018   3.074 -0.2177 -0.0593  0.6305
 1816SOL    MW4 7264   2.257   1.099   3.107 -0.0314  0.0794  0.2586
 1817SOL     OW 7265   2.488   1.237   3.049  0.1925 -0.0427 -0.1535
 1817SOL    HW2 7266   2.411   1.183   3.065 -0.0676  0.0387 -1.1106
 1817SOL    HW3 7267   2.493   1.245   2.953  0.4314  1.3289 -0.0443
 1817SOL    MW4 7268   2.479   1.231   3.038  0.1897  0.1490 -0.2654
 1818SOL     OW 7269   2.448   1.503   3.149  0.2981  0.0285  0.1501
 1818SOL    HW2 7270   2.376   1.540   3.097 -1.6948 -0.4103  2.5102
 1818SOL    HW3 7271   2.446   1.409   3.128  0.6599  0.1241 -0.3246
 1818SOL    MW4 7272   2.438   1.495   3.139  0.0829 -0.0168  0.3989
 1819SOL     OW 7273   2.282   1.691   2.997  0.5909 -0.0970  0.0779
 1819SOL    HW2 7274   2.201   1.650   3.028  0.6858 -0.4294 -0.1163
 1819SOL    HW3 7275   2.284   1.672   2.903 -0.3971  2.0708 -0.4236
 1819SOL    MW4 7276   2.271   1.683   2.988  0.4731  0.1452 -0.0139
 1820SOL     OW 7277   2.266   1.962   3.120  0.7324  0.4123 -0.1400
 1820SOL    HW2 7278   2.346   2.002   3.086  1.1711  0.2797  0.7235
 1820SOL    HW3 7279   2.259   1.879   3.072  1.6799 -0.0577  0.5146
 1820SOL    MW4 7280   2.275   1.956   3.109  0.9153  0.3328  0.0603
 1821SOL     OW 7281   2.498   2.065   2.997 -0.3622  0.0295 -0.0482
 1821SOL    HW2 7282   2.557   2.005   3.041 -2.7481 -3.0468 -0.8267
 1821SOL    HW3 7283   2.526   2.064   2.905 -0.9349 -0.6243 -0.2241
 1821SOL    MW4 7284   2.509   2.057   2.991 -0.7525 -0.4626 -0.1742
 1822SOL     OW 7285   2.525   2.334   3.095 -0.1878  0.2749  0.0910
 1822SOL    HW2 7286   2.516   2.324   3.190 -0.5912 -0.2863 -0.0021
 1822SOL    HW3 7287   2.514   2.245   3.060 -1.0743  0.6235 -0.5547
 1822SOL    MW4 7288   2.522   2.321   3.103 -0.3580  0.2468 -0.0064
 1823SOL     OW 7289   2.257   2.432   3.027  0.1946  0.3414 -0.2912
 1823SOL    HW2 7290   2.241   2.519   3.064 -0.7622 -0.1315  0.4405
 1823SOL    HW3 7291   2.347   2.412   3.052  0.1151  0.7334  0.3480
 1823SOL    MW4 7292   2.266   2.441   3.035  0.0579  0.3307 -0.1103
 1824SOL     OW 7293   2.224   2.690   3.139  0.0166  0.0473 -0.5482
 1824SOL    HW2 7294   2.294   2.735   3.091 -0.3695  0.2289 -0.9513
 1824SOL    HW3 7295   2.143   2.729   3.104 -0.2513  0.9344  1.0042
 1824SOL    MW4 7296   2.222   2.701   3.128 -0.0697  0.1883 -0.3966
 1825SOL     OW 7297   2.432   2.861   3.011 -0.7632  0.6918  0.2585
 1825SOL    HW2 7298   2.437   2.951   3.044  2.7251  0.4630  0.5397
 1825SOL    HW3 7299   2.444   2.869   2.917  0.7000  0.4399  0.4195
 1825SOL    MW4 7300   2.434   2.874   3.003 -0.1099  0.6284  0.3168
 1826SOL     OW 7301   2.441   3.130   3.118  0.2798  0.5138  0.3493
 1826SOL    HW2 7302   2.524   3.173   3.096 -0.0662  0.7617 -0.4840
 1826SOL    HW3 7303   2.376   3.171   3.061 -0.0349 -1.2133 -0.5709
 1826SOL    MW4 7304   2.443   3.141   3.108  0.1926  0.3186  0.1180
 1827SOL     OW 7305   2.221   3.247   3.012  0.0231 -0.0048  0.4112
 1827SOL    HW2 7306   2.233   3.328   3.062 -1.7230 -1.0270  2.5420
 1827SOL    HW3 7307   2.143   3.207   3.049  1.1902 -2.9803 -0.2113
 1827SOL    MW4 7308   2.212   3.253   3.023 -0.0533 -0.5322  0.6102
 1828SOL     OW 7309   2.246   3.499   3.133  0.2011 -0.2521 -0.5733
 1828SOL    HW2 7310   2.325   3.520   3.083 -0.1492 -0.3321 -1.1746
 1828SOL    HW3 7311   2.178   3.555   3.094  0.3223  1.0931  1.0710
 1828SOL    MW4 7312   2.248   3.509   3.121  0.1709 -0.0852 -0.4357
 1829SOL     OW 7313   2.463   3.583   3.000  0.0457  0.2423 -0.3413
 1829SOL    HW2 7314   2.539   3.550   3.048 -0.1201 -0.0653 -0.2896
 1829SOL    HW3 7315   2.449   3.672   3.034  0.3726  0.2927 -0.3418
 1829SOL    MW4 7316   2.471   3.591   3.011  0.0669  0.2084 -0.3345
 1830SOL     OW 7317   2.459   3.817   3.124  0.2265  0.3358  0.2771
 1830SOL    HW2 7318   2.455   3.838   3.218  1.0890 -0.0340  0.4070
 1830SOL    HW3 7319   2.534   3.866   3.092  0.4070 -0.1487 -0.0514
 1830SOL    MW4 7320   2.468   3.826   3.132  0.3641  0.2231  0.2509
 1831SOL     OW 7321   2.242   3.942   3.001 -0.1822  0.1084 -0.0561
 1831SOL    HW2 7322   2.320   3.893   3.027  0.0638  0.4193 -0.2009
 1831SOL    HW3 7323   2.171   3.906   3.055 -0.3914 -1.7450 -1.5378
 1831SOL    MW4 7324   2.243   3.931   3.012 -0.1774 -0.0951 -0.2707
 1832SOL     OW 7325   2.239   4.209   3.100  0.0411  0.5814  0.2629
 1832SOL    HW2 7326   2.239   4.118   3.068  0.1732  0.5471  0.3594
 1832SOL    HW3 7327   2.161   4.248   3.060 -0.1945  0.3355  0.4741
 1832SOL    MW4 7328   2.229   4.202   3.090  0.0274  0.5444  0.3035
 1833SOL     OW 7329   2.458   4.347   3.002  0.4412  0.2651  0.3240
 1833SOL    HW2 7330   2.381   4.296   3.028  0.3213  0.4094  0.2538
 1833SOL    HW3 7331   2.463   4.337   2.907 -0.4798  1.6226  0.1126
 1833SOL    MW4 7332   2.448   4.339   2.993  0.3038  0.4633  0.2868
 1834SOL     OW 7333   2.946   4.635   3.135  0.3863  0.0203  0.1094
 1834SOL    HW2 7334   3.018   4.681   3.091  2.9831 -2.8603  1.1118
 1834SOL    HW3 7335   2.943   4.549   3.092 -3.0278  0.3705 -0.4414
 1834SOL    MW4 7336   2.955   4.629   3.124  0.2785 -0.3136  0.1690
 1835SOL     OW 7337   2.714   0.081   2.999  0.4231  0.1739 -0.0254
 1835SOL    HW2 7338   2.789   0.045   3.047  0.1634 -0.1310  0.1616
 1835SOL    HW3 7339   2.638   0.038   3.039  0.1297  0.6724 -0.0393
 1835SOL    MW4 7340   2.714   0.070   3.011  0.3501  0.1995 -0.0026
 1836SOL     OW 7341   2.699   0.341   3.108  0.0793  0.4166 -0.5237
 1836SOL    HW2 7342   2.699   0.259   3.058  1.8128  1.4247 -2.2341
 1836SOL    HW3 7343   2.635   0.396   3.063 -0.0519  0.5097 -0.2230
 1836SOL    MW4 7344   2.690   0.337   3.095  0.2907  0.5619 -0.7097
 1837SOL     OW 7345   2.946   0.438   3.031  0.2069 -0.2006  0.1893
 1837SOL    HW2 7346   2.860   0.398   3.048  0.5997 -1.2903 -0.3292
 1837SOL    HW3 7347   2.948   0.451   2.936  0.6610 -0.2954  0.1853
 1837SOL    MW4 7348   2.935   0.434   3.021  0.3186 -0.3569  0.1203
 1838SOL     OW 7349   2.926   0.689   3.133 -0.0488  0.2729  0.1577
 1838SOL    HW2 7350   2.934   0.705   3.227  1.3234  1.4152 -0.1398
 1838SOL    HW3 7351   2.922   0.594   3.125  1.9397  0.0797  1.2300
 1838SOL    MW4 7352   2.926   0.679   3.145  0.3946  0.3981  0.2599
 1839SOL     OW 7353   2.739   0.872   2.993 -0.0569 -0.2937  0.0656
 1839SOL    HW2 7354   2.739   0.961   3.026  2.1552  0.3167 -1.4977
 1839SOL    HW3 7355   2.808   0.828   3.043 -0.0507 -0.7003 -0.3004
 1839SOL    MW4 7356   2.748   0.878   3.004  0.2358 -0.2668 -0.1890
 1840SOL     OW 7357   2.726   1.146   3.113  0.0353  0.4964  0.2063
 1840SOL    HW2 7358   2.778   1.200   3.053 -1.1354 -0.3447 -1.5839
 1840SOL    HW3 7359   2.637   1.178   3.104 -0.3235 -0.3363  0.7411
 1840SOL    MW4 7360   2.721   1.158   3.104 -0.1665  0.2756  0.0407
 1841SOL     OW 7361   2.928   1.295   2.982 -0.4745  0.2557 -0.4090
 1841SOL    HW2 7362   3.002   1.259   3.030 -2.4028 -1.2947  1.5540
 1841SOL    HW3 7363   2.903   1.374   3.030 -0.5927  0.3240 -0.5792
 1841SOL    MW4 7364   2.934   1.300   2.995 -0.7445  0.0601 -0.1725
 1842SOL     OW 7365   2.912   1.514   3.134  0.1168 -0.1050 -0.2144
 1842SOL    HW2 7366   2.932   1.505   3.227 -0.4011 -0.3445 -0.1279
 1842SOL    HW3 7367   2.972   1.582   3.103 -0.5647  0.8717  0.5715
 1842SOL    MW4 7368   2.922   1.522   3.142 -0.0414 -0.0077 -0.0993
 1843SOL     OW 7369   2.650   1.638   3.023  0.0808  0.3008 -0.4462
 1843SOL    HW2 7370   2.727   1.602   3.067  1.1092  1.6224 -1.1315
 1843SOL    HW3 7371   2.576   1.594   3.064  1.1590 -0.3819  0.7943
 1843SOL    MW4 7372   2.651   1.627   3.034  0.3587  0.3851 -0.3729
 1844SOL     OW 7373   2.669   1.894   3.116  0.4471 -0.0909 -0.3690
 1844SOL    HW2 7374   2.741   1.949   3.086  0.2392 -0.0268 -0.7667
 1844SOL    HW3 7375   2.678   1.814   3.065 -0.9314  0.6867 -1.9138
 1844SOL    MW4 7376   2.679   1.891   3.105  0.2378  0.0201 -0.6253
 1845SOL     OW 7377   2.898   2.051   3.024 -0.0120 -0.0042 -0.2186
 1845SOL    HW2 7378   2.890   2.146   3.035  0.4773 -0.1371  1.3296
 1845SOL    HW3 7379   2.909   2.039   2.930 -0.2081  1.4681 -0.4383
 1845SOL    MW4 7380   2.898   2.062   3.013  0.0267  0.1725 -0.0433
 1846SOL     OW 7381   2.905   2.308   3.095 -0.0106 -0.3549 -0.1859
 1846SOL    HW2 7382   2.993   2.333   3.066  0.7109 -1.1929  1.2222
 1846SOL    HW3 7383   2.849   2.378   3.063  1.4368  1.1601  0.4932
 1846SOL    MW4 7384   2.910   2.321   3.087  0.2756 -0.2656  0.0895
 1847SOL     OW 7385   2.726   2.509   3.024 -0.3200  0.4935 -0.0751
 1847SOL    HW2 7386   2.713   2.601   3.049 -0.1505  0.9787 -1.7326
 1847SOL    HW3 7387   2.639   2.470   3.034 -0.0721  0.4584  2.1066
 1847SOL    MW4 7388   2.713   2.516   3.029 -0.2649  0.5528 -0.0059
 1848SOL     OW 7389   2.669   2.766   3.121 -0.0806  0.7671  0.1922
 1848SOL    HW2 7390   2.654   2.737   3.212  0.6964  3.0373  1.0743
 1848SOL    HW3 7391   2.582   2.788   3.088 -0.5012 -1.0577  0.0007
 1848SOL    MW4 7392   2.656   2.765   3.129 -0.0336  0.8258  0.2833
 1849SOL     OW 7393   2.928   2.871   3.068  0.1004  0.0925  0.1395
 1849SOL    HW2 7394   2.991   2.811   3.108 -0.2608 -0.2163  0.2462
 1849SOL    HW3 7395   2.843   2.834   3.090 -0.1003 -0.2003 -1.1020
 1849SOL    MW4 7396   2.925   2.858   3.077  0.0262  0.0131 -0.0102
 1850SOL     OW 7397   2.938   3.140   3.115 -0.0141  0.1570  0.0529
 1850SOL    HW2 7398   2.848   3.156   3.086  0.5120  0.7823 -1.3141
 1850SOL    HW3 7399   2.953   3.047   3.096 -0.2967  0.1137  0.0452
 1850SOL    MW4 7400   2.928   3.130   3.109  0.0180  0.2338 -0.1284
 1851SOL     OW 7401   2.682   3.232   3.039 -0.1371  0.2151  0.6647
 1851SOL    HW2 7402   2.679   3.324   3.064 -2.3272  0.0123  1.2134
 1851SOL    HW3 7403   2.678   3.232   2.944 -0.4371  0.6632  0.6804
 1851SOL    MW4 7404   2.681   3.244   3.030 -0.4656  0.2474  0.7392
 1852SOL     OW 7405   2.684   3.492   3.132 -0.0991 -0.1809  0.1585
 1852SOL    HW2 7406   2.684   3.497   3.228  0.6417  0.9358  0.1101
 1852SOL    HW3 7407   2.750   3.556   3.105  0.6015 -1.4008 -1.0546
 1852SOL    MW4 7408   2.692   3.501   3.141  0.0911 -0.1945 -0.0079
 1853SOL     OW 7409   2.930   3.606   3.037 -0.4800  0.4221  0.6640
 1853SOL    HW2 7410   3.014   3.573   3.067  0.2961  0.5385 -1.3638
 1853SOL    HW3 7411   2.931   3.699   3.059  0.1197  0.5282  0.1743
 1853SOL    MW4 7412   2.941   3.614   3.044 -0.2985  0.4515  0.3318
 1854SOL     OW 7413   2.899   3.847   3.150 -0.1209 -0.0559  0.5036
 1854SOL    HW2 7414   2.886   3.837   3.245 -1.2867  0.5374  0.4115
 1854SOL    HW3 7415   2.819   3.888   3.119 -0.6856 -2.2494 -1.0883
 1854SOL    MW4 7416   2.887   3.851   3.159 -0.3492 -0.2671  0.2814
 1855SOL     OW 7417   2.677   3.965   3.016 -0.2452 -0.0103 -0.7079
 1855SOL    HW2 7418   2.674   4.058   3.041 -0.7271 -0.1008 -0.4333
 1855SOL    HW3 7419   2.679   3.967   2.920  1.6648  0.3340 -0.6722
 1855SOL    MW4 7420   2.677   3.978   3.007 -0.0568  0.0232 -0.6670
 1856SOL     OW 7421   2.692   4.246   3.096  0.3695 -0.3311  0.0041
 1856SOL    HW2 7422   2.691   4.238   3.191 -0.8380  0.9134  0.1148
 1856SOL    HW3 7423   2.608   4.286   3.074  1.6538  1.7356 -1.3566
 1856SOL    MW4 7424   2.681   4.250   3.106  0.3796  0.1058 -0.1608
 1857SOL     OW 7425   2.914   4.375   2.991 -0.1590 -0.1151  0.2462
 1857SOL    HW2 7426   2.985   4.321   3.026  0.9821  0.7012 -0.7319
 1857SOL    HW3 7427   2.834   4.335   3.025  0.7898 -0.6843  1.8887
 1857SOL    MW4 7428   2.913   4.362   3.000  0.1167 -0.0825  0.3338
 1858SOL     OW 7429   3.392   4.629   3.140  0.0894  0.3944  0.4156
 1858SOL    HW2 7430   3.468   4.672   3.102  0.0664  1.4974  1.5850
 1858SOL    HW3 7431   3.395   4.539   3.107  2.2326  0.2584  0.9279
 1858SOL    MW4 7432   3.402   4.623   3.131  0.3692  0.5220  0.6375
 1859SOL     OW 7433   3.165   0.089   3.012 -0.2365 -0.1962  0.7541
 1859SOL    HW2 7434   3.190   0.173   3.049  0.5441 -0.4993  0.9354
 1859SOL    HW3 7435   3.229   0.027   3.047  0.6095 -0.4584 -1.1950
 1859SOL    MW4 7436   3.177   0.092   3.021 -0.0219 -0.2708  0.5209
 1860SOL     OW 7437   3.185   0.333   3.123  0.2657  0.2526  0.4902
 1860SOL    HW2 7438   3.264   0.384   3.103  0.2400  0.4854  0.9802
 1860SOL    HW3 7439   3.115   0.381   3.080  0.1859  0.8543  1.2781
 1860SOL    MW4 7440   3.186   0.346   3.115  0.2517  0.3627  0.6588
 1861SOL     OW 7441   3.400   0.480   3.062 -0.0117 -0.6742 -0.0663
 1861SOL    HW2 7442   3.479   0.432   3.085  1.0213  0.9466 -0.1282
 1861SOL    HW3 7443   3.392   0.472   2.967  0.0705 -0.8377 -0.0586
 1861SOL    MW4 7444   3.409   0.473   3.053  0.1354 -0.4819 -0.0735
 1862SOL     OW 7445   3.376   0.741   3.115  0.4387  0.3479  0.6832
 1862SOL    HW2 7446   3.376   0.747   3.211 -1.5098 -0.7450  0.7733
 1862SOL    HW3 7447   3.367   0.647   3.097 -1.5092  0.7490 -0.5481
 1862SOL    MW4 7448   3.375   0.729   3.126 -0.0754  0.2566  0.5327
 1863SOL     OW 7449   3.125   0.856   3.048  0.6728  0.1258 -0.3412
 1863SOL    HW2 7450   3.211   0.825   3.078  0.8033  0.4608 -0.3620
 1863SOL    HW3 7451   3.063   0.793   3.084  0.8585  0.3444  0.3817
 1863SOL    MW4 7452   3.128   0.843   3.057  0.7145  0.1988 -0.2485
 1864SOL     OW 7453   3.137   1.126   3.131 -0.3235  0.2199 -0.1946
 1864SOL    HW2 7454   3.223   1.157   3.104 -1.0124  0.4961 -2.1421
 1864SOL    HW3 7455   3.130   1.039   3.094 -0.6365 -0.0537  0.5005
 1864SOL    MW4 7456   3.148   1.119   3.123 -0.4557  0.2203 -0.3598
 1865SOL     OW 7457   3.375   1.247   3.034  0.0886  0.3949 -0.1197
 1865SOL    HW2 7458   3.452   1.201   3.067 -1.5337 -0.8260  2.0713
 1865SOL    HW3 7459   3.377   1.332   3.077 -1.1358 -0.5918  1.9713
 1865SOL    MW4 7460   3.385   1.252   3.044 -0.2870  0.1037  0.4453
 1866SOL     OW 7461   3.371   1.543   3.138 -0.3680  0.2531 -0.4794
 1866SOL    HW2 7462   3.394   1.545   3.231  1.1820  1.3847 -0.8698
 1866SOL    HW3 7463   3.452   1.567   3.093 -1.2751  0.3201 -2.1030
 1866SOL    MW4 7464   3.385   1.546   3.145 -0.2832  0.4113 -0.7451
 1867SOL     OW 7465   3.139   1.681   3.035  0.0413  0.2105  0.0150
 1867SOL    HW2 7466   3.213   1.638   3.076  0.0384  1.1125  0.9984
 1867SOL    HW3 7467   3.157   1.676   2.941  1.0090 -0.1825  0.2172
 1867SOL    MW4 7468   3.151   1.675   3.028  0.1686  0.2777  0.1714
 1868SOL     OW 7469   3.128   1.949   3.130  0.1348  0.0708 -0.1801
 1868SOL    HW2 7470   3.127   1.866   3.082  1.2776  0.2879 -0.6006
 1868SOL    HW3 7471   3.042   1.987   3.114  0.4171  0.0444 -1.9166
 1868SOL    MW4 7472   3.117   1.943   3.122  0.3228  0.0960 -0.4647
 1869SOL     OW 7473   3.383   2.081   3.054 -0.3529 -0.4411  0.2730
 1869SOL    HW2 7474   3.457   2.027   3.082  0.2829  0.8669  1.1971
 1869SOL    HW3 7475   3.306   2.032   3.083  0.2425 -0.2770  2.1956
 1869SOL    MW4 7476   3.383   2.067   3.062 -0.1905 -0.2469  0.6486
 1870SOL     OW 7477   3.394   2.353   3.104 -0.0453  0.3591  0.2246
 1870SOL    HW2 7478   3.375   2.367   3.196 -0.1345  1.1769  0.0799
 1870SOL    HW3 7479   3.395   2.257   3.094 -0.9574  0.2802  0.8705
 1870SOL    MW4 7480   3.392   2.342   3.115 -0.1774  0.4566  0.2907
 1871SOL     OW 7481   3.136   2.425   3.015 -0.0021 -0.4532  0.0098
 1871SOL    HW2 7482   3.230   2.420   3.029 -0.2425 -2.1095  1.1411
 1871SOL    HW3 7483   3.125   2.419   2.920  0.9615 -1.4971 -0.0393
 1871SOL    MW4 7484   3.147   2.424   3.004  0.0934 -0.8095  0.1526
 1872SOL     OW 7485   3.119   2.688   3.122  0.2341  0.6021 -0.7723
 1872SOL    HW2 7486   3.105   2.666   3.214 -0.5038  0.5765 -0.8817
 1872SOL    HW3 7487   3.100   2.607   3.075 -0.5871  0.9380 -1.0329
 1872SOL    MW4 7488   3.114   2.675   3.128  0.0284  0.6430 -0.8211
 1873SOL     OW 7489   3.386   2.798   3.056  0.0740 -0.1343  0.0634
 1873SOL    HW2 7490   3.375   2.893   3.064 -0.7206 -0.1692 -0.5589
 1873SOL    HW3 7491   3.301   2.762   3.082  0.1638 -0.6346 -0.3231
 1873SOL    MW4 7492   3.373   2.806   3.060 -0.0190 -0.2049 -0.0697
 1874SOL     OW 7493   3.347   3.055   3.122  0.0226 -0.1390 -0.0793
 1874SOL    HW2 7494   3.354   3.054   3.218  0.1950  0.0617 -0.0893
 1874SOL    HW3 7495   3.273   3.113   3.104  0.8447  0.9063 -0.1157
 1874SOL    MW4 7496   3.338   3.063   3.132  0.1538  0.0254 -0.0854
 1875SOL     OW 7497   3.173   3.224   3.007 -0.0141 -0.4946  0.0173
 1875SOL    HW2 7498   3.085   3.187   3.019 -1.3153  2.3231 -0.3969
 1875SOL    HW3 7499   3.181   3.235   2.912  0.7879 -0.7077  0.0596
 1875SOL    MW4 7500   3.162   3.221   2.996 -0.0800 -0.1510 -0.0318
 1876SOL     OW 7501   3.166   3.486   3.134  0.1596  0.0484 -0.2749
 1876SOL    HW2 7502   3.231   3.538   3.088  0.2388  0.4066  0.2411
 1876SOL    HW3 7503   3.163   3.403   3.086 -0.5848  0.8340 -1.6181
 1876SOL    MW4 7504   3.174   3.482   3.121  0.0719  0.1993 -0.3841
 1877SOL     OW 7505   3.349   3.631   2.991 -0.1753 -0.3220 -0.5172
 1877SOL    HW2 7506   3.431   3.584   3.001 -0.0428 -0.0004 -0.0564
 1877SOL    HW3 7507   3.364   3.715   3.035 -0.4606  0.0830 -1.1735
 1877SOL    MW4 7508   3.362   3.636   2.998 -0.1955 -0.2261 -0.5430
 1878SOL     OW 7509   3.348   3.869   3.121 -0.2973 -0.3226  0.2450
 1878SOL    HW2 7510   3.357   3.851   3.215  0.0225 -0.8927  0.1079
 1878SOL    HW3 7511   3.257   3.896   3.110 -0.4676 -0.7200  0.6468
 1878SOL    MW4 7512   3.337   3.870   3.132 -0.2776 -0.4503  0.2800
 1879SOL     OW 7513   3.109   3.995   3.054 -0.0698 -0.7438 -0.1182
 1879SOL    HW2 7514   3.032   3.946   3.082  0.3026 -0.8063  0.8166
 1879SOL    HW3 7515   3.121   3.972   2.962 -1.4538 -0.3485 -0.4026
 1879SOL    MW4 7516   3.101   3.986   3.045 -0.2033 -0.6999 -0.0324
 1880SOL     OW 7517   3.128   4.262   3.109 -0.0400  0.3270 -0.0301
 1880SOL    HW2 7518   3.128   4.269   3.205 -0.8178 -0.9086  0.0791
 1880SOL    HW3 7519   3.117   4.168   3.093 -1.8063  0.7291 -1.3264
 1880SOL    MW4 7520   3.126   4.251   3.120 -0.3757  0.2171 -0.1867
 1881SOL     OW 7521   3.370   4.376   3.032 -0.5535  0.9345  0.0537
 1881SOL    HW2 7522   3.435   4.309   3.050 -0.5993  1.1156  0.9101
 1881SOL    HW3 7523   3.287   4.337   3.058 -0.6748  1.0425 -0.1657
 1881SOL    MW4 7524   3.368   4.362   3.038 -0.5755  0.9727  0.1378
 1882SOL     OW 7525   3.817   4.607   3.148  0.5195  0.1393 -0.4729
 1882SOL    HW2 7526   3.821   4.516   3.119 -0.3836  0.1964 -0.7765
 1882SOL    HW3 7527   3.733   4.639   3.116  0.0850  0.5843  1.1108
 1882SOL    MW4 7528   3.807   4.599   3.140  0.3430  0.2055 -0.3040
 1883SOL     OW 7529   3.606   0.080   3.046  0.0391  0.0423 -0.2229
 1883SOL    HW2 7530   3.606   0.172   3.074 -0.5744  0.0130 -0.1207
 1883SOL    HW3 7531   3.600   0.084   2.951 -0.2573  0.1017 -0.2010
 1883SOL    MW4 7532   3.605   0.093   3.037 -0.0809  0.0463 -0.2065
 1884SOL     OW 7533   3.619   0.343   3.144 -0.2442 -0.1054 -0.4853
 1884SOL    HW2 7534   3.628   0.355   3.239  0.3325 -1.5240 -0.3602
 1884SOL    HW3 7535   3.690   0.396   3.107  0.6158 -0.9489 -0.0497
 1884SOL    MW4 7536   3.629   0.352   3.152 -0.0547 -0.4038 -0.4114
 1885SOL     OW 7537   3.821   0.485   3.027  0.5079 -0.4120 -1.0487
 1885SOL    HW2 7538   3.897   0.456   3.077 -0.7909 -0.2136  1.0643
 1885SOL    HW3 7539   3.819   0.580   3.040  0.0515 -0.3783 -1.3493
 1885SOL    MW4 7540   3.831   0.494   3.035  0.2763 -0.3814 -0.8096
 1886SOL     OW 7541   3.830   0.741   3.125 -0.2756  0.1642  0.1789
 1886SOL    HW2 7542   3.824   0.735   3.221 -0.7201  0.7806  0.1922
 1886SOL    HW3 7543   3.913   0.786   3.109 -0.2124  0.0831  0.2764
 1886SOL    MW4 7544   3.840   0.746   3.136 -0.3259  0.2349  0.1935
 1887SOL     OW 7545   3.611   0.873   3.027  0.2205 -0.1816  0.2850
 1887SOL    HW2 7546   3.687   0.826   3.062  0.5592  0.6440  0.6510
 1887SOL    HW3 7547   3.536   0.827   3.064  0.5697  0.4176  1.7416
 1887SOL    MW4 7548   3.611   0.861   3.036  0.3113  0.0064  0.5254
 1888SOL     OW 7549   3.603   1.143   3.150  0.3884 -0.2381  0.1064
 1888SOL    HW2 7550   3.677   1.202   3.135  0.7864 -0.4922  1.0190
 1888SOL    HW3 7551   3.626   1.063   3.102 -0.0117  0.2339 -0.8808
 1888SOL    MW4 7552   3.616   1.140   3.142  0.3881 -0.2093  0.0965
 1889SOL     OW 7553   3.841   1.272   3.074 -0.6368  0.1828 -0.3031
 1889SOL    HW2 7554   3.874   1.362   3.083 -0.9436  0.4237 -1.4157
 1889SOL    HW3 7555   3.821   1.264   2.981 -0.0686 -1.2447 -0.3108
 1889SOL    MW4 7556   3.843   1.283   3.063 -0.6023  0.0263 -0.4509
 1890SOL     OW 7557   3.876   1.551   3.121  0.2972 -0.4448  0.1035
 1890SOL    HW2 7558   3.868   1.548   3.216 -0.6388  0.3516  0.0566
 1890SOL    HW3 7559   3.792   1.585   3.091  0.7743 -0.1913 -0.9754
 1890SOL    MW4 7560   3.864   1.555   3.130  0.2366 -0.3063 -0.0450
 1891SOL     OW 7561   3.615   1.642   3.032  0.1011  0.6788 -0.1565
 1891SOL    HW2 7562   3.612   1.737   3.044  0.5391  0.6011  0.5683
 1891SOL    HW3 7563   3.623   1.631   2.937 -3.2459  1.2916 -0.5861
 1891SOL    MW4 7564   3.615   1.653   3.021 -0.2827  0.7494 -0.1176
 1892SOL     OW 7565   3.614   1.901   3.128 -0.2284 -0.0818  0.5693
 1892SOL    HW2 7566   3.613   1.902   3.224 -0.7308 -0.9556  0.5771
 1892SOL    HW3 7567   3.695   1.946   3.104 -0.9066  1.5883  1.3822
 1892SOL    MW4 7568   3.624   1.907   3.138 -0.3842  0.0233  0.6776
 1893SOL     OW 7569   3.860   2.012   3.072  0.4468  0.0742  0.4290
 1893SOL    HW2 7570   3.846   2.104   3.097 -1.3851 -0.5276  1.7140
 1893SOL    HW3 7571   3.863   2.013   2.977 -3.0306  1.0170  0.2806
 1893SOL    MW4 7572   3.859   2.025   3.063 -0.2537  0.1192  0.5790
 1894SOL     OW 7573   3.842   2.281   3.156  0.2279 -0.5171 -0.4141
 1894SOL    HW2 7574   3.846   2.299   3.250  1.4323 -1.5532 -0.2440
 1894SOL    HW3 7575   3.770   2.335   3.124 -0.2371 -0.1984  1.1171
 1894SOL    MW4 7576   3.833   2.290   3.164  0.3255 -0.6117 -0.1897
 1895SOL     OW 7577   3.647   2.428   3.030  0.3246  0.1045 -0.1556
 1895SOL    HW2 7578   3.649   2.522   3.051 -0.4285  0.2908 -0.9297
 1895SOL    HW3 7579   3.561   2.398   3.059  0.3119 -0.2098 -0.5174
 1895SOL    MW4 7580   3.636   2.437   3.037  0.2235  0.0876 -0.3055
 1896SOL     OW 7581   3.633   2.688   3.125  0.0768 -0.3409 -0.6520
 1896SOL    HW2 7582   3.691   2.761   3.103  0.1298 -0.7034 -1.7509
 1896SOL    HW3 7583   3.545   2.719   3.103  0.1282 -0.7047 -1.3736
 1896SOL    MW4 7584   3.629   2.701   3.119  0.0906 -0.4367 -0.8922
 1897SOL     OW 7585   3.835   2.861   3.036 -0.1990 -0.1273 -0.0424
 1897SOL    HW2 7586   3.821   2.952   3.060  1.7201  0.5749 -1.4752
 1897SOL    HW3 7587   3.833   2.861   2.940 -0.7979 -1.6990 -0.0485
 1897SOL    MW4 7588   3.833   2.873   3.026 -0.0248 -0.2420 -0.2323
 1898SOL     OW 7589   3.809   3.110   3.136 -0.3163  0.1186 -0.0054
 1898SOL    HW2 7590   3.885   3.163   3.111 -0.9528  0.4921 -1.1708
 1898SOL    HW3 7591   3.737   3.145   3.085 -1.2092 -0.4734  0.8305
 1898SOL    MW4 7592   3.810   3.121   3.126 -0.5181  0.0898 -0.0488
 1899SOL     OW 7593   3.556   3.212   3.009  0.2753 -0.0973  0.6223
 1899SOL    HW2 7594   3.481   3.170   3.051 -0.2900 -0.0014 -0.3062
 1899SOL    HW3 7595   3.556   3.179   2.920  1.7605 -0.6545  0.8123
 1899SOL    MW4 7596   3.546   3.202   3.003  0.3967 -0.1581  0.5249
 1900SOL     OW 7597   3.569   3.494   3.076  0.1658  0.0575 -0.0335
 1900SOL    HW2 7598   3.654   3.534   3.059 -0.3381  0.9640 -0.4605
 1900SOL    HW3 7599   3.584   3.401   3.064  1.3542  0.1021  0.9520
 1900SOL    MW4 7600   3.582   3.487   3.072  0.2561  0.1830  0.0402
 1901SOL     OW 7601   3.827   3.601   3.013  0.0459 -0.4591 -0.7041
 1901SOL    HW2 7602   3.826   3.691   3.047  0.3137 -0.5571 -0.4364
 1901SOL    HW3 7603   3.813   3.611   2.919  1.9268 -0.0066 -0.9468
 1901SOL    MW4 7604   3.825   3.614   3.005  0.3294 -0.4123 -0.7008
 1902SOL     OW 7605   3.817   3.847   3.118  0.7103 -0.4882  0.0665
 1902SOL    HW2 7606   3.806   3.843   3.213  0.2940 -0.1569  0.0361
 1902SOL    HW3 7607   3.748   3.906   3.088 -1.2197 -3.0814 -0.7801
 1902SOL    MW4 7608   3.806   3.854   3.126  0.4007 -0.7867 -0.0492
 1903SOL     OW 7609   3.608   4.003   3.025 -0.2385 -0.1056 -0.7035
 1903SOL    HW2 7610   3.529   3.962   3.059 -0.0286 -0.6515 -0.8634
 1903SOL    HW3 7611   3.589   4.018   2.932 -0.8401  1.4523 -0.3400
 1903SOL    MW4 7612   3.595   4.000   3.017 -0.2902  0.0279 -0.6766
 1904SOL     OW 7613   3.586   4.248   3.139  0.6835 -0.2298 -0.5700
 1904SOL    HW2 7614   3.663   4.292   3.102  0.3977  0.1172 -0.7540
 1904SOL    HW3 7615   3.598   4.156   3.116  2.5084 -0.6639  1.8861
 1904SOL    MW4 7616   3.598   4.242   3.131  0.8866 -0.2413 -0.2702
 1905SOL     OW 7617   3.836   4.350   3.047 -0.6626 -0.3205 -0.2810
 1905SOL    HW2 7618   3.925   4.314   3.053 -0.1607  0.6017 -1.8323
 1905SOL    HW3 7619   3.816   4.347   2.953 -2.5090 -1.0621  0.1216
 1905SOL    MW4 7620   3.845   4.345   3.035 -0.8400 -0.2967 -0.4325
 1906SOL     OW 7621   4.261   4.660   3.135  0.1879  0.3824 -0.6355
 1906SOL    HW2 7622   4.268   4.635   3.227 -1.1352 -0.0231 -0.6328
 1906SOL    HW3 7623   4.250   4.577   3.088  1.3366  0.5423 -1.2263
 1906SOL    MW4 7624   4.261   4.646   3.141  0.1649  0.3500 -0.7131
 1907SOL     OW 7625   4.009   0.127   3.061 -0.6722 -0.5885 -0.1242
 1907SOL    HW2 7626   4.085   0.076   3.087 -1.0908 -1.2472 -0.1961
 1907SOL    HW3 7627   3.935   0.081   3.100 -0.8240  1.4968  2.2052
 1907SOL    MW4 7628   4.009   0.114   3.070 -0.7474 -0.4003  0.1736
 1908SOL     OW 7629   4.035   0.374   3.182  0.3611 -0.2211  0.0184
 1908SOL    HW2 7630   4.113   0.416   3.144 -0.2555  0.0560 -0.9547
 1908SOL    HW3 7631   4.041   0.283   3.153  0.8643 -0.4465  0.8124
 1908SOL    MW4 7632   4.046   0.368   3.173  0.3461 -0.2143 -0.0052
 1909SOL     OW 7633   4.291   0.453   3.052 -0.2673 -0.1085  0.1936
 1909SOL    HW2 7634   4.293   0.546   3.072 -0.0636 -0.0230 -0.2291
 1909SOL    HW3 7635   4.272   0.449   2.958  0.3812 -0.4824  0.0804
 1909SOL    MW4 7636   4.288   0.465   3.042 -0.1549 -0.1466  0.1229
 1910SOL     OW 7637   4.303   0.727   3.133  0.6683 -0.7469  0.3567
 1910SOL    HW2 7638   4.231   0.773   3.091  0.5847  0.5440  1.8489
 1910SOL    HW3 7639   4.378   0.787   3.124  0.9220 -0.9558  1.0340
 1910SOL    MW4 7640   4.303   0.741   3.126  0.6907 -0.6041  0.6429
 1911SOL     OW 7641   4.052   0.850   3.048 -0.3464  0.3057  0.0657
 1911SOL    HW2 7642   4.040   0.944   3.062 -0.5085  0.4706 -1.1309
 1911SOL    HW3 7643   4.035   0.837   2.955 -0.1041 -0.8793  0.1759
 1911SOL    MW4 7644   4.049   0.861   3.038 -0.3358  0.1711 -0.0776
 1912SOL     OW 7645   4.059   1.119   3.137 -0.1193  0.1664 -0.0587
 1912SOL    HW2 7646   4.065   1.115   3.233 -0.7010 -0.3385 -0.0426
 1912SOL    HW3 7647   3.980   1.171   3.120 -0.5976 -0.6168 -0.2578
 1912SOL    MW4 7648   4.049   1.125   3.147 -0.2592 -0.0036 -0.0829
 1913SOL     OW 7649   4.296   1.257   3.025  0.1933  0.1499 -0.4992
 1913SOL    HW2 7650   4.214   1.235   3.070  0.4376  1.0727  0.4075
 1913SOL    HW3 7651   4.273   1.255   2.932 -0.8348  0.2806 -0.2618
 1913SOL    MW4 7652   4.282   1.254   3.019  0.0899  0.2889 -0.3483
 1914SOL     OW 7653   4.343   1.545   3.127 -0.3676 -0.0881 -0.2578
 1914SOL    HW2 7654   4.270   1.595   3.090 -0.9061 -1.3017 -0.8646
 1914SOL    HW3 7655   4.343   1.463   3.078 -0.2591 -1.1918  1.5367
 1914SOL    MW4 7656   4.333   1.541   3.116 -0.4244 -0.3938 -0.1011
 1915SOL     OW 7657   4.107   1.687   3.031  0.0668  0.1410  0.0489
 1915SOL    HW2 7658   4.111   1.766   3.086  1.0345  0.4196 -0.4043
 1915SOL    HW3 7659   4.030   1.640   3.063 -1.2247  1.8477 -0.4648
 1915SOL    MW4 7660   4.097   1.691   3.043  0.0241  0.4029 -0.0786
 1916SOL     OW 7661   4.104   1.920   3.182 -0.3874 -0.4676 -0.4350
 1916SOL    HW2 7662   4.172   1.961   3.130 -1.1608  0.2702 -0.8622
 1916SOL    HW3 7663   4.022   1.954   3.148 -0.9342 -0.4184  0.8724
 1916SOL    MW4 7664   4.102   1.930   3.171 -0.5616 -0.3638 -0.3189
 1917SOL     OW 7665   4.306   2.035   3.025  0.0551  0.2418 -0.0775
 1917SOL    HW2 7666   4.304   2.127   3.052 -0.5188  0.2894 -0.2654
 1917SOL    HW3 7667   4.286   2.037   2.932 -1.9051 -0.2184  0.3143
 1917SOL    MW4 7668   4.303   2.047   3.016 -0.2793  0.1873 -0.0506
 1918SOL     OW 7669   4.286   2.311   3.094  0.5002  0.5368  0.0500
 1918SOL    HW2 7670   4.207   2.351   3.057 -0.5723  1.3461  3.0491
 1918SOL    HW3 7671   4.357   2.371   3.070 -0.1752  1.0841 -0.6024
 1918SOL    MW4 7672   4.285   2.324   3.086  0.2696  0.7158  0.3596
 1919SOL     OW 7673   4.045   2.425   2.998 -0.2449 -0.6268 -0.6115
 1919SOL    HW2 7674   4.038   2.499   3.058  0.7613 -1.2123  0.2384
 1919SOL    HW3 7675   3.995   2.355   3.040  2.9666 -1.9976  1.0749
 1919SOL    MW4 7676   4.037   2.425   3.011  0.3115 -0.8849 -0.2769
 1920SOL     OW 7677   4.031   2.664   3.131 -0.0994  0.1594 -0.2100
 1920SOL    HW2 7678   4.045   2.679   3.224 -0.5377  1.0452 -0.2745
 1920SOL    HW3 7679   3.966   2.730   3.106 -1.0755 -1.0218 -0.8248
 1920SOL    MW4 7680   4.024   2.675   3.140 -0.2860  0.1205 -0.2996
 1921SOL     OW 7681   4.223   2.823   3.001  0.0031 -0.5114 -0.0338
 1921SOL    HW2 7682   4.158   2.756   3.023 -0.1882 -0.2045  0.3361
 1921SOL    HW3 7683   4.302   2.795   3.046  0.2147 -1.0392 -0.7146
 1921SOL    MW4 7684   4.225   2.810   3.010  0.0058 -0.5406 -0.0749
 1922SOL     OW 7685   4.263   3.075   3.126  0.0428 -0.2440 -0.4381
 1922SOL    HW2 7686   4.188   3.129   3.097  0.5015  0.1116 -0.9795
 1922SOL    HW3 7687   4.246   2.989   3.089 -0.0409 -0.1299 -0.6716
 1922SOL    MW4 7688   4.251   3.071   3.117  0.0923 -0.1820 -0.5404
 1923SOL     OW 7689   4.054   3.213   3.041 -0.4416  0.4507  0.0053
 1923SOL    HW2 7690   4.064   3.304   3.071 -0.1311  0.5506 -0.4023
 1923SOL    HW3 7691   4.055   3.219   2.946  0.7304 -0.1018 -0.0231
 1923SOL    MW4 7692   4.055   3.226   3.033 -0.2460  0.3910 -0.0522
 1924SOL     OW 7693   4.068   3.481   3.115  0.0099 -0.2184 -0.3274
 1924SOL    HW2 7694   4.068   3.487   3.211  1.5072  0.8129 -0.3697
 1924SOL    HW3 7695   3.993   3.534   3.088 -0.6823 -0.8680  0.2819
 1924SOL    MW4 7696   4.058   3.489   3.124  0.1161 -0.1680 -0.2526
 1925SOL     OW 7697   4.281   3.600   3.007 -0.0822  0.0073 -0.0648
 1925SOL    HW2 7698   4.286   3.668   3.074 -1.0707  0.8680 -0.8551
 1925SOL    HW3 7699   4.206   3.546   3.033 -0.6220  0.4886 -0.5949
 1925SOL    MW4 7700   4.272   3.602   3.019 -0.2839  0.1844 -0.2390
 1926SOL     OW 7701   4.333   3.855   3.125  0.0949 -0.0204 -0.0004
 1926SOL    HW2 7702   4.252   3.879   3.080  0.8968 -2.0065 -2.6369
 1926SOL    HW3 7703   4.400   3.908   3.082  0.8674 -1.8961 -1.1311
 1926SOL    MW4 7704   4.331   3.865   3.113  0.3026 -0.5299 -0.4974
 1927SOL     OW 7705   4.074   3.937   3.036  0.0186  0.0504 -0.2326
 1927SOL    HW2 7706   4.075   4.032   3.051 -0.0502 -0.0637  0.4935
 1927SOL    HW3 7707   3.996   3.906   3.083  0.4834 -0.4765  0.1949
 1927SOL    MW4 7708   4.064   3.946   3.044  0.0708 -0.0342 -0.0804
 1928SOL     OW 7709   4.071   4.206   3.114  0.5811 -0.1768  0.1875
 1928SOL    HW2 7710   4.052   4.208   3.208  0.2028 -1.6815  0.1649
 1928SOL    HW3 7711   4.142   4.269   3.103  0.7287 -0.0800  1.5115
 1928SOL    MW4 7712   4.078   4.215   3.125  0.5507 -0.3625  0.3592
 1929SOL     OW 7713   4.253   4.396   3.038 -0.4837  0.3147  0.4422
 1929SOL    HW2 7714   4.339   4.361   3.062 -0.1598  1.0138  0.3129
 1929SOL    HW3 7715   4.242   4.373   2.946 -0.9933 -0.8960  0.8029
 1929SOL    MW4 7716   4.263   4.389   3.029 -0.5082  0.2472  0.4727
 1930SOL     OW 7717   0.213   4.665   3.392 -0.2521  0.7867 -0.0649
 1930SOL    HW2 7718   0.293   4.700   3.430  1.0675 -0.8364 -1.2748
 1930SOL    HW3 7719   0.207   4.576   3.426 -1.7437  1.0079  0.2982
 1930SOL    MW4 7720   0.223   4.658   3.401 -0.2748  0.6017 -0.1766
 1931SOL     OW 7721   0.005   0.098   3.527 -0.1528  0.0174 -0.2353
 1931SOL    HW2 7722   0.010   0.185   3.487  1.5074  0.3657  0.6738
 1931SOL    HW3 7723   0.089   0.056   3.505 -0.1476 -0.6186  0.9569
 1931SOL    MW4 7724   0.017   0.104   3.519  0.0669 -0.0206  0.0419
 1932SOL     OW 7725   0.010   0.355   3.442  0.7422  0.1601 -0.0331
 1932SOL    HW2 7726  -0.061   0.408   3.477  0.2052 -0.4946 -0.1147
 1932SOL    HW3 7727   0.090   0.401   3.469  0.3013  0.6056  0.5357
 1932SOL    MW4 7728   0.011   0.368   3.450  0.6132  0.1325  0.0312
 1933SOL     OW 7729   0.237   0.484   3.549 -0.0695  0.4374  0.2818
 1933SOL    HW2 7730   0.314   0.439   3.514 -0.3356  0.0561  0.1907
 1933SOL    HW3 7731   0.233   0.566   3.499 -0.4008 -0.0660 -0.5253
 1933SOL    MW4 7732   0.247   0.489   3.538 -0.1483  0.3207  0.1633
 1934SOL     OW 7733   0.222   0.702   3.415  0.0389  0.1107 -0.0980
 1934SOL    HW2 7734   0.283   0.771   3.440  0.7698 -1.0320  1.3022
 1934SOL    HW3 7735   0.136   0.738   3.435  0.4603  0.3282  1.3841
 1934SOL    MW4 7736   0.219   0.716   3.421  0.1909 -0.0114  0.2823
 1935SOL     OW 7737   4.488   0.849   3.506 -0.1448  0.5333 -0.4895
 1935SOL    HW2 7738   4.506   0.846   3.600  2.1445  0.7606 -0.9056
 1935SOL    HW3 7739   4.473   0.941   3.486 -1.3858  0.4008 -0.2370
 1935SOL    MW4 7740   4.488   0.861   3.515 -0.0065  0.5458 -0.5111
 1936SOL     OW 7741   4.479   1.130   3.445 -0.0810 -0.2263 -0.1010
 1936SOL    HW2 7742   4.559   1.180   3.462 -0.5521  0.5251 -0.0838
 1936SOL    HW3 7743   4.460   1.146   3.353 -0.2154 -0.3977 -0.1033
 1936SOL    MW4 7744   4.487   1.138   3.435 -0.1609 -0.1498 -0.0991
 1937SOL     OW 7745   0.209   1.307   3.506 -0.1861 -0.3574 -0.2446
 1937SOL    HW2 7746   0.281   1.254   3.472  1.1444  1.5619 -0.5186
 1937SOL    HW3 7747   0.202   1.381   3.445 -1.4640  0.2187  0.5599
 1937SOL    MW4 7748   0.217   1.310   3.494 -0.1792 -0.0282 -0.1746
 1938SOL     OW 7749   0.241   1.528   3.329  0.1672  0.2298 -0.2513
 1938SOL    HW2 7750   0.326   1.541   3.371  0.5128 -0.0787 -0.8561
 1938SOL    HW3 7751   0.258   1.538   3.236 -0.6090  0.9649 -0.3226
 1938SOL    MW4 7752   0.254   1.531   3.322  0.1104  0.2861 -0.3405
 1939SOL     OW 7753   0.048   1.668   3.494  0.5294  0.8427 -0.2190
 1939SOL    HW2 7754  -0.032   1.624   3.467  0.9258 -0.1340  0.1748
 1939SOL    HW3 7755   0.117   1.629   3.441  1.0792  0.0186  1.0845
 1939SOL    MW4 7756   0.046   1.657   3.484  0.6543  0.6051  0.0049
 1940SOL     OW 7757   0.036   1.924   3.389 -0.0407 -0.1940 -0.0248
 1940SOL    HW2 7758   0.047   1.838   3.429 -0.0613 -0.1993 -0.0310
 1940SOL    HW3 7759   0.046   1.909   3.295  0.8163 -0.0556  0.0348
 1940SOL    MW4 7760   0.039   1.911   3.382  0.0696 -0.1764 -0.0178
 1941SOL     OW 7761   0.270   2.038   3.486  0.3977  0.4082 -0.2617
 1941SOL    HW2 7762   0.261   2.053   3.580 -0.1600  1.6212 -0.5063
 1941SOL    HW3 7763   0.185   2.002   3.459  0.1725  1.1254 -0.5065
 1941SOL    MW4 7764   0.258   2.035   3.495  0.2944  0.6629 -0.3262
 1942SOL     OW 7765   0.268   2.288   3.345  0.5218 -0.2342 -0.3870
 1942SOL    HW2 7766   0.202   2.345   3.384  0.1192  1.1466 -2.9294
 1942SOL    HW3 7767   0.250   2.201   3.381 -1.4779  0.4984  0.4267
 1942SOL    MW4 7768   0.257   2.284   3.355  0.2048  0.0447 -0.6151
 1943SOL     OW 7769   0.049   2.429   3.470  0.1427  0.3956  0.1670
 1943SOL    HW2 7770   0.027   2.451   3.561  0.4575  1.8421 -0.1047
 1943SOL    HW3 7771  -0.022   2.372   3.441 -0.3209  0.4929  1.1008
 1943SOL    MW4 7772   0.037   2.424   3.478  0.1231  0.5993  0.2544
 1944SOL     OW 7773   0.026   2.693   3.401 -0.2170  0.3093 -0.7124
 1944SOL    HW2 7774   0.103   2.734   3.441 -0.0371  0.1327 -0.8768
 1944SOL    HW3 7775   0.039   2.599   3.414 -0.3774  0.2760 -0.7898
 1944SOL    MW4 7776   0.038   2.686   3.408 -0.2144  0.2816 -0.7443
 1945SOL     OW 7777   0.252   2.830   3.518  0.2914  0.3208  0.7020
 1945SOL    HW2 7778   0.309   2.788   3.454  0.3101 -1.0092  1.5565
 1945SOL    HW3 7779   0.235   2.917   3.483  2.5999  0.6244  0.2868
 1945SOL    MW4 7780   0.257   2.836   3.505  0.5984  0.1854  0.7600
 1946SOL     OW 7781   0.221   3.077   3.387 -0.2176 -0.0443  0.0869
 1946SOL    HW2 7782   0.154   3.127   3.433  0.8108  2.4765 -1.0819
 1946SOL    HW3 7783   0.199   3.087   3.294  0.5332 -1.0011 -0.2022
 1946SOL    MW4 7784   0.209   3.085   3.381  0.0172  0.1621 -0.1055
 1947SOL     OW 7785   0.040   3.229   3.513 -0.0014 -0.0640  0.2959
 1947SOL    HW2 7786  -0.040   3.189   3.482  0.5181 -0.1623 -0.9309
 1947SOL    HW3 7787   0.031   3.322   3.490  0.2009 -0.0561  0.2504
 1947SOL    MW4 7788   0.028   3.236   3.506  0.0939 -0.0759  0.1281
 1948SOL     OW 7789   4.470   3.464   3.402  0.0166  0.3095 -0.2109
 1948SOL    HW2 7790   4.405   3.520   3.445  0.9590  0.8554  0.5189
 1948SOL    HW3 7791   4.466   3.490   3.310 -1.9268 -0.7813 -0.4789
 1948SOL    MW4 7792   4.461   3.475   3.395 -0.1155  0.2376 -0.1500
 1949SOL     OW 7793   0.221   3.601   3.452 -0.4624  0.1856  0.0513
 1949SOL    HW2 7794   0.227   3.613   3.547  1.9789  1.4899 -0.2049
 1949SOL    HW3 7795   0.136   3.560   3.438 -0.3947 -1.0598  2.8908
 1949SOL    MW4 7796   0.211   3.597   3.463 -0.1314  0.1933  0.3921
 1950SOL     OW 7797   0.236   3.865   3.380  0.0507  0.1896 -0.0365
 1950SOL    HW2 7798   0.155   3.906   3.409 -0.1521 -0.1339 -0.1384
 1950SOL    HW3 7799   0.223   3.771   3.398  0.2968  0.1073 -0.2882
 1950SOL    MW4 7800   0.224   3.858   3.386  0.0564  0.1361 -0.0831
 1951SOL     OW 7801   0.022   3.993   3.499  0.3366  0.0728  0.3261
 1951SOL    HW2 7802  -0.008   3.997   3.590 -1.8121  0.2964 -0.3557
 1951SOL    HW3 7803   0.010   4.082   3.466 -1.6398 -0.6475 -0.9800
 1951SOL    MW4 7804   0.016   4.005   3.507 -0.2077  0.0073  0.0638
 1952SOL     OW 7805   0.006   4.237   3.391 -0.4502  0.1055  0.5549
 1952SOL    HW2 7806  -0.077   4.263   3.431 -0.3502  0.6412  0.4278
 1952SOL    HW3 7807   0.067   4.306   3.417 -0.4190  0.5450 -0.6315
 1952SOL    MW4 7808   0.003   4.250   3.399 -0.4329  0.2342  0.3816
 1953SOL     OW 7809   0.216   4.396   3.472  0.1797  0.2651 -0.0495
 1953SOL    HW2 7810   0.223   4.382   3.566 -1.5221  0.7606  0.1600
 1953SOL    HW3 7811   0.295   4.354   3.436  0.9915  0.3287  1.6040
 1953SOL    MW4 7812   0.228   4.388   3.479  0.0623  0.3388  0.1963
 1954SOL     OW 7813   0.660   4.658   3.434  0.4306 -0.2706 -0.1462
 1954SOL    HW2 7814   0.738   4.707   3.460 -0.2058  0.6308  0.0784
 1954SOL    HW3 7815   0.659   4.662   3.338  0.1211  0.5620 -0.1090
 1954SOL    MW4 7816   0.670   4.665   3.425  0.3058 -0.0418 -0.1117
 1955SOL     OW 7817   0.426   0.124   3.524  0.2018  0.2224 -0.1537
 1955SOL    HW2 7818   0.434   0.116   3.619  0.5933 -2.2295 -0.3635
 1955SOL    HW3 7819   0.500   0.074   3.489 -0.3467  0.5004 -1.7493
 1955SOL    MW4 7820   0.437   0.116   3.532  0.1811 -0.0644 -0.3919
 1956SOL     OW 7821   0.458   0.381   3.418  0.2442 -0.7073  0.0291
 1956SOL    HW2 7822   0.542   0.409   3.454  0.6716 -0.9477 -0.7663
 1956SOL    HW3 7823   0.442   0.295   3.458 -0.3638 -0.0087  1.3388
 1956SOL    MW4 7824   0.467   0.373   3.428  0.2204 -0.6468  0.0969
 1957SOL     OW 7825   0.695   0.529   3.502 -0.0776 -0.2258 -0.3701
 1957SOL    HW2 7826   0.684   0.505   3.594  0.1635  1.8500  0.2372
 1957SOL    HW3 7827   0.766   0.472   3.471  0.0816 -0.7008  0.8306
 1957SOL    MW4 7828   0.703   0.519   3.510 -0.0248 -0.0146 -0.1315
 1958SOL     OW 7829   0.645   0.778   3.393 -0.2830  0.2444 -0.0181
 1958SOL    HW2 7830   0.564   0.807   3.434 -0.1397  0.3699  0.1771
 1958SOL    HW3 7831   0.659   0.690   3.429  0.5091  0.8482  1.1818
 1958SOL    MW4 7832   0.636   0.770   3.403 -0.1596  0.3406  0.1659
 1959SOL     OW 7833   0.406   0.892   3.484 -0.5030  0.1618 -0.0011
 1959SOL    HW2 7834   0.395   0.894   3.579  0.2203 -1.0357  0.1278
 1959SOL    HW3 7835   0.393   0.982   3.456 -1.6837  0.3537  1.1206
 1959SOL    MW4 7836   0.403   0.904   3.493 -0.5633  0.0291  0.1639
 1960SOL     OW 7837   0.412   1.146   3.392  0.7220 -0.1759 -0.2526
 1960SOL    HW2 7838   0.484   1.199   3.425  0.3961 -0.0569  0.2789
 1960SOL    HW3 7839   0.430   1.136   3.299  0.0814  1.9850 -0.6394
 1960SOL    MW4 7840   0.424   1.151   3.384  0.5945  0.1249 -0.2335
 1961SOL     OW 7841   0.633   1.287   3.499 -0.1749 -0.1085  0.5630
 1961SOL    HW2 7842   0.706   1.229   3.477  0.3580  0.0352  1.9048
 1961SOL    HW3 7843   0.661   1.373   3.468  0.5274  0.0735  1.6633
 1961SOL    MW4 7844   0.647   1.290   3.492 -0.0120 -0.0655  0.8852
 1962SOL     OW 7845   0.702   1.548   3.430  0.2054  0.0882  0.1310
 1962SOL    HW2 7846   0.773   1.607   3.456 -0.3387  1.2409 -0.9003
 1962SOL    HW3 7847   0.622   1.595   3.452 -0.2424  0.1322 -1.4940
 1962SOL    MW4 7848   0.701   1.562   3.436  0.0746  0.2461 -0.2195
 1963SOL     OW 7849   0.442   1.611   3.496 -0.5332 -0.0285  0.0841
 1963SOL    HW2 7850   0.443   1.620   3.591  1.4701  0.8708 -0.0019
 1963SOL    HW3 7851   0.431   1.700   3.464 -0.1131 -0.1955 -0.5315
 1963SOL    MW4 7852   0.441   1.624   3.504 -0.2135  0.0681 -0.0084
 1964SOL     OW 7853   0.470   1.869   3.396 -0.3361 -0.8347  0.1773
 1964SOL    HW2 7854   0.406   1.935   3.424  1.8379  0.7577  1.5453
 1964SOL    HW3 7855   0.480   1.884   3.303 -1.4083 -0.6240  0.0813
 1964SOL    MW4 7856   0.463   1.880   3.388 -0.1907 -0.5968  0.3451
 1965SOL     OW 7857   0.694   1.992   3.486  0.2446 -0.6044 -0.1677
 1965SOL    HW2 7858   0.699   1.986   3.581  0.6307 -1.9618 -0.2636
 1965SOL    HW3 7859   0.612   1.948   3.463 -0.2951  0.5003 -0.4065
 1965SOL    MW4 7860   0.684   1.986   3.495  0.2243 -0.6377 -0.2119
 1966SOL     OW 7861   0.708   2.242   3.379 -0.0968  0.0241  0.3089
 1966SOL    HW2 7862   0.769   2.298   3.426  0.1738  0.0142 -0.0261
 1966SOL    HW3 7863   0.715   2.157   3.422 -0.1114  0.1088  0.4773
 1966SOL    MW4 7864   0.717   2.238   3.391 -0.0630  0.0340  0.2869
 1967SOL     OW 7865   0.493   2.422   3.445  0.0798 -0.1244 -0.3828
 1967SOL    HW2 7866   0.563   2.357   3.447 -1.6202 -2.0033  1.9422
 1967SOL    HW3 7867   0.416   2.373   3.418 -1.4594  0.6395  2.4539
 1967SOL    MW4 7868   0.492   2.407   3.442 -0.3476 -0.2715  0.2982
 1968SOL     OW 7869   0.428   2.678   3.361  0.3172 -0.1517  0.2114
 1968SOL    HW2 7870   0.456   2.589   3.383 -0.0404 -0.0749  0.9821
 1968SOL    HW3 7871   0.454   2.689   3.270  1.4821 -0.6094  0.4783
 1968SOL    MW4 7872   0.435   2.667   3.352  0.4237 -0.2020  0.3483
 1969SOL     OW 7873   0.640   2.816   3.476 -0.0550 -0.3371 -0.1699
 1969SOL    HW2 7874   0.714   2.760   3.451  0.5212  0.2527  0.1852
 1969SOL    HW3 7875   0.563   2.762   3.460  0.4394 -0.8949 -0.7468
 1969SOL    MW4 7876   0.640   2.802   3.470  0.0863 -0.3329 -0.1991
 1970SOL     OW 7877   0.674   3.094   3.385 -0.2518  0.5609  0.1872
 1970SOL    HW2 7878   0.596   3.145   3.407 -1.3708  0.3511 -2.9935
 1970SOL    HW3 7879   0.663   3.011   3.432 -1.3211  1.0171  0.7532
 1970SOL    MW4 7880   0.662   3.090   3.394 -0.5405  0.5934 -0.1578
 1971SOL     OW 7881   0.445   3.213   3.468  0.3172 -0.6581  0.0547
 1971SOL    HW2 7882   0.429   3.219   3.562 -1.3828  0.8827 -0.2884
 1971SOL    HW3 7883   0.373   3.159   3.435  0.2614 -0.2546 -0.5015
 1971SOL    MW4 7884   0.433   3.206   3.476  0.0855 -0.4016 -0.0640
 1972SOL     OW 7885   0.450   3.476   3.363 -0.0561 -0.9323 -0.2554
 1972SOL    HW2 7886   0.437   3.390   3.404 -0.6674 -0.6205  0.2084
 1972SOL    HW3 7887   0.371   3.525   3.384  0.8152  0.1670  0.5136
 1972SOL    MW4 7888   0.438   3.471   3.371 -0.0218 -0.7461 -0.0928
 1973SOL     OW 7889   0.652   3.616   3.505 -0.2051  0.5399 -0.0678
 1973SOL    HW2 7890   0.730   3.568   3.475 -0.0287  0.6539  0.2094
 1973SOL    HW3 7891   0.580   3.576   3.456  0.4540  2.7863 -3.0272
 1973SOL    MW4 7892   0.653   3.604   3.495 -0.0949  0.8513 -0.4216
 1974SOL     OW 7893   0.668   3.867   3.412  0.3980  0.1401 -0.0012
 1974SOL    HW2 7894   0.580   3.895   3.437  0.9368  1.2522  0.7051
 1974SOL    HW3 7895   0.678   3.780   3.451  0.2569  0.7434  1.4132
 1974SOL    MW4 7896   0.658   3.859   3.420  0.4505  0.3664  0.2786
 1975SOL     OW 7897   0.448   3.989   3.510  0.0008 -0.0269  0.3877
 1975SOL    HW2 7898   0.435   4.081   3.486 -0.0424 -0.0744  0.2271
 1975SOL    HW3 7899   0.378   3.942   3.465  1.1310 -0.3759 -1.0775
 1975SOL    MW4 7900   0.437   3.995   3.501  0.1442 -0.0792  0.1732
 1976SOL     OW 7901   0.439   4.252   3.378  0.3272 -0.2846  0.1079
 1976SOL    HW2 7902   0.505   4.304   3.425  0.5029 -1.6371  1.4143
 1976SOL    HW3 7903   0.462   4.262   3.286  0.7727  1.3787  0.3755
 1976SOL    MW4 7904   0.451   4.260   3.372  0.4091 -0.2436  0.3155
 1977SOL     OW 7905   0.648   4.380   3.512 -0.1240 -0.1140 -0.4895
 1977SOL    HW2 7906   0.722   4.336   3.469  0.4136 -1.1738  1.4579
 1977SOL    HW3 7907   0.661   4.473   3.492  1.7494 -0.2790 -0.1670
 1977SOL    MW4 7908   0.660   4.386   3.504  0.1941 -0.2756 -0.1900
 1978SOL     OW 7909   1.115   4.642   3.396 -0.1849  0.3732 -0.1562
 1978SOL    HW2 7910   1.183   4.705   3.420 -0.1930  0.2525  0.1745
 1978SOL    HW3 7911   1.114   4.645   3.300 -0.0046  0.6835 -0.1518
 1978SOL    MW4 7912   1.124   4.651   3.386 -0.1622  0.3982 -0.1120
 1979SOL     OW 7913   0.898   0.115   3.521  0.3882  0.6317  0.2225
 1979SOL    HW2 7914   0.897   0.128   3.616  0.6736 -0.1004  0.3258
 1979SOL    HW3 7915   0.974   0.060   3.505 -1.3924 -1.8367 -0.0930
 1979SOL    MW4 7916   0.908   0.109   3.531  0.1909  0.2095  0.1945
 1980SOL     OW 7917   0.902   0.364   3.399  0.3288  0.0001 -0.1473
 1980SOL    HW2 7918   0.990   0.394   3.422  0.1148  0.9557 -0.5183
 1980SOL    HW3 7919   0.899   0.273   3.427  0.9672  0.3647  1.1552
 1980SOL    MW4 7920   0.913   0.356   3.406  0.3848  0.1743 -0.0244
 1981SOL     OW 7921   1.156   0.484   3.462 -0.4407  0.7444 -0.2948
 1981SOL    HW2 7922   1.144   0.569   3.420 -2.0443  0.4933 -0.3801
 1981SOL    HW3 7923   1.146   0.502   3.556  1.1808  0.9663 -0.1435
 1981SOL    MW4 7924   1.153   0.498   3.469 -0.4384  0.7405 -0.2861
 1982SOL     OW 7925   1.141   0.756   3.380 -0.2839  0.4409  0.3986
 1982SOL    HW2 7926   1.223   0.794   3.410 -0.2460 -1.3729  2.7951
 1982SOL    HW3 7927   1.073   0.810   3.421 -0.2483 -0.3647  1.5330
 1982SOL    MW4 7928   1.143   0.768   3.389 -0.2742  0.0953  0.8644
 1983SOL     OW 7929   0.892   0.899   3.442  0.1962 -0.1465 -0.3270
 1983SOL    HW2 7930   0.863   0.987   3.419  1.3225  0.0837 -0.8961
 1983SOL    HW3 7931   0.825   0.841   3.405 -0.7627  0.4738  0.4028
 1983SOL    MW4 7932   0.879   0.903   3.434  0.2183 -0.0343 -0.3058
 1984SOL     OW 7933   0.861   1.176   3.383  0.0225  0.3174  0.3151
 1984SOL    HW2 7934   0.939   1.212   3.424 -0.5826  1.4496  0.4903
 1984SOL    HW3 7935   0.887   1.159   3.292 -0.2707  3.2650 -0.3797
 1984SOL    MW4 7936   0.875   1.178   3.376 -0.0960  0.8557  0.2465
 1985SOL     OW 7937   1.113   1.275   3.467 -0.2642 -0.2368  0.0570
 1985SOL    HW2 7938   1.112   1.274   3.562 -1.6175 -0.7708  0.0585
 1985SOL    HW3 7939   1.126   1.367   3.444 -1.5083  0.1336  0.7762
 1985SOL    MW4 7940   1.114   1.287   3.476 -0.6069 -0.2584  0.1521
 1986SOL     OW 7941   1.143   1.539   3.393  0.2400 -0.0137 -0.1174
 1986SOL    HW2 7942   1.205   1.598   3.434 -1.1093  1.5340 -0.2458
 1986SOL    HW3 7943   1.167   1.537   3.301  0.5818 -0.0507 -0.0259
 1986SOL    MW4 7944   1.154   1.546   3.386  0.1071  0.1857 -0.1222
 1987SOL     OW 7945   0.931   1.690   3.516 -0.2013 -0.1296  0.1265
 1987SOL    HW2 7946   0.935   1.769   3.463 -1.3471  0.6498  1.1896
 1987SOL    HW3 7947   0.995   1.631   3.476  1.1807  1.5892 -0.2232
 1987SOL    MW4 7948   0.940   1.692   3.504 -0.1701  0.2000  0.2206
 1988SOL     OW 7949   0.930   1.935   3.372 -0.1259  0.0299 -0.3929
 1988SOL    HW2 7950   0.996   1.995   3.405 -0.2849  0.3122 -0.5806
 1988SOL    HW3 7951   0.853   1.951   3.427  0.0137 -0.4196 -0.0627
 1988SOL    MW4 7952   0.928   1.945   3.383 -0.1285  0.0079 -0.3741
 1989SOL     OW 7953   1.152   2.067   3.504 -0.1964  0.1875 -0.1509
 1989SOL    HW2 7954   1.216   2.021   3.450 -0.4818 -0.1626 -0.1947
 1989SOL    HW3 7955   1.153   2.157   3.472 -0.0893  0.0670 -0.4859
 1989SOL    MW4 7956   1.160   2.073   3.493 -0.2199  0.1254 -0.2009
 1990SOL     OW 7957   1.120   2.323   3.376  0.0115 -0.3291  0.4304
 1990SOL    HW2 7958   1.197   2.363   3.416 -0.5383  0.1441  1.0312
 1990SOL    HW3 7959   1.132   2.336   3.282  0.4721  0.0927  0.5432
 1990SOL    MW4 7960   1.132   2.330   3.369 -0.0003 -0.2110  0.5246
 1991SOL     OW 7961   0.885   2.417   3.514 -0.1021  0.1276 -0.1107
 1991SOL    HW2 7962   0.901   2.398   3.606 -1.1549  0.9196  0.2393
 1991SOL    HW3 7963   0.966   2.391   3.470 -0.2379 -1.9062  0.7945
 1991SOL    MW4 7964   0.898   2.411   3.520 -0.2589 -0.0362  0.0549
 1992SOL     OW 7965   0.886   2.673   3.430  0.1732 -0.2652  0.4777
 1992SOL    HW2 7966   0.965   2.725   3.444 -0.8546  1.0412  1.6948
 1992SOL    HW3 7967   0.907   2.586   3.463  1.4390 -0.2285 -0.2133
 1992SOL    MW4 7968   0.899   2.668   3.436  0.2046 -0.0880  0.5471
 1993SOL     OW 7969   1.093   2.834   3.458  0.0638  0.2379  0.4168
 1993SOL    HW2 7970   1.097   2.836   3.554 -0.0821 -0.5999  0.4458
 1993SOL    HW3 7971   1.174   2.792   3.431 -1.4964 -2.8906  0.3572
 1993SOL    MW4 7972   1.104   2.828   3.467 -0.1613 -0.2854  0.4128
 1994SOL     OW 7973   1.096   3.093   3.379 -0.2523 -0.5832 -0.1807
 1994SOL    HW2 7974   1.084   2.999   3.392  0.1735 -0.6958 -0.5515
 1994SOL    HW3 7975   1.123   3.100   3.287 -0.3184 -0.0980 -0.1602
 1994SOL    MW4 7976   1.098   3.081   3.368 -0.2048 -0.5340 -0.2269
 1995SOL     OW 7977   0.890   3.241   3.517 -0.2542  0.1564 -0.2679
 1995SOL    HW2 7978   0.971   3.199   3.488 -0.2642  0.8359 -1.2898
 1995SOL    HW3 7979   0.820   3.182   3.487 -0.1757 -0.0372 -0.0695
 1995SOL    MW4 7980   0.891   3.228   3.509 -0.2451  0.2205 -0.3765
 1996SOL     OW 7981   0.893   3.493   3.437  0.3859  0.1944 -0.0664
 1996SOL    HW2 7982   0.911   3.402   3.463  3.0937  0.2565 -1.5564
 1996SOL    HW3 7983   0.880   3.488   3.342 -1.5171  1.0845  0.1332
 1996SOL    MW4 7984   0.894   3.480   3.428  0.4921  0.3200 -0.2366
 1997SOL     OW 7985   1.123   3.638   3.463 -0.2222 -0.1763 -0.5171
 1997SOL    HW2 7986   1.110   3.642   3.557  0.0865  2.1032 -0.5298
 1997SOL    HW3 7987   1.048   3.588   3.430 -0.6584 -0.4414  0.8632
 1997SOL    MW4 7988   1.111   3.632   3.471 -0.2390  0.0895 -0.3366
 1998SOL     OW 7989   1.111   3.919   3.398 -0.3133 -0.5996 -0.2407
 1998SOL    HW2 7990   1.179   3.966   3.447 -1.1821  0.5396 -0.0985
 1998SOL    HW3 7991   1.130   3.827   3.412 -0.5072 -0.2914  2.1630
 1998SOL    MW4 7992   1.122   3.913   3.406 -0.4535 -0.4086  0.0952
 1999SOL     OW 7993   0.864   4.022   3.528 -0.4784 -0.0215 -0.1385
 1999SOL    HW2 7994   0.942   3.992   3.481 -0.2450 -1.1916  0.9696
 1999SOL    HW3 7995   0.792   3.976   3.487 -0.3745 -0.3602  0.0590
 1999SOL    MW4 7996   0.865   4.012   3.516 -0.4339 -0.2206  0.0338
 2000SOL     OW 7997   0.885   4.271   3.407 -0.1780  0.2916  0.1981
 2000SOL    HW2 7998   0.868   4.189   3.453 -0.2647 -0.5185 -1.2286
 2000SOL    HW3 7999   0.882   4.247   3.314  0.4848  1.7760 -0.2219
 2000SOL    MW4 8000   0.883   4.257   3.401 -0.1020  0.3806 -0.0456
 2001SOL     OW 8001   1.127   4.371   3.478  0.4011 -0.8919 -0.2710
 2001SOL    HW2 8002   1.046   4.327   3.450  1.2766 -2.0685 -1.0407
 2001SOL    HW3 8003   1.115   4.462   3.452 -1.6434 -0.5507  1.7577
 2001SOL    MW4 8004   1.115   4.377   3.471  0.2469 -1.0022 -0.1049
 2002SOL     OW 8005   1.549   4.645   3.327 -0.0619  0.4236 -0.1770
 2002SOL    HW2 8006   1.563   4.565   3.377 -0.0730  0.5429  0.0181
 2002SOL    HW3 8007   1.465   4.679   3.358 -0.2569  0.2918 -0.5562
 2002SOL    MW4 8008   1.539   4.639   3.338 -0.0891  0.4220 -0.2013
 2003SOL     OW 8009   1.350   0.099   3.482  0.3008 -0.0877  0.3634
 2003SOL    HW2 8010   1.358   0.092   3.577  0.5764  1.5643  0.4792
 2003SOL    HW3 8011   1.380   0.188   3.462  1.7000 -0.9335 -1.4308
 2003SOL    MW4 8012   1.355   0.110   3.492  0.5218  0.0186  0.1420
 2004SOL     OW 8013   1.386   0.350   3.400  0.1164  0.7440  0.1231
 2004SOL    HW2 8014   1.450   0.414   3.431 -0.1600  0.9118  0.3521
 2004SOL    HW3 8015   1.301   0.395   3.408 -0.0396  0.4905 -0.0887
 2004SOL    MW4 8016   1.383   0.365   3.405  0.0594  0.7327  0.1254
 2005SOL     OW 8017   1.581   0.521   3.493 -0.1293  0.1179  0.5825
 2005SOL    HW2 8018   1.569   0.509   3.587 -0.5447 -0.3522  0.4725
 2005SOL    HW3 8019   1.662   0.474   3.472 -0.9424 -1.2366  0.4142
 2005SOL    MW4 8020   1.590   0.513   3.503 -0.2913 -0.1228  0.5458
 2006SOL     OW 8021   1.564   0.761   3.343 -0.6303  0.1793 -0.6452
 2006SOL    HW2 8022   1.495   0.807   3.391 -0.5663 -0.7245  0.3344
 2006SOL    HW3 8023   1.572   0.677   3.388  0.3063 -0.1805 -1.4735
 2006SOL    MW4 8024   1.556   0.756   3.355 -0.4983  0.0126 -0.6253
 2007SOL     OW 8025   1.367   0.895   3.489  0.2418 -0.1282  0.4457
 2007SOL    HW2 8026   1.368   0.902   3.584 -0.0001  2.3685  0.2833
 2007SOL    HW3 8027   1.392   0.982   3.457  1.4577 -1.2294 -1.7812
 2007SOL    MW4 8028   1.370   0.907   3.497  0.3703  0.0559  0.1305
 2008SOL     OW 8029   1.364   1.156   3.373  0.3370  0.2124  0.6780
 2008SOL    HW2 8030   1.427   1.218   3.411 -0.1905  0.6329  0.8676
 2008SOL    HW3 8031   1.278   1.191   3.397  0.0427 -1.0234  1.4861
 2008SOL    MW4 8032   1.361   1.169   3.381  0.2286  0.1048  0.8096
 2009SOL     OW 8033   1.602   1.298   3.507  0.0140 -0.4688 -0.4699
 2009SOL    HW2 8034   1.604   1.283   3.602 -0.2550  1.9679 -0.0472
 2009SOL    HW3 8035   1.670   1.241   3.472  0.7230 -0.7436  1.3091
 2009SOL    MW4 8036   1.611   1.289   3.515  0.0721 -0.1836 -0.1794
 2010SOL     OW 8037   1.552   1.545   3.396  0.0202  0.4728 -0.1813
 2010SOL    HW2 8038   1.550   1.459   3.437 -1.5650  1.0129  0.9029
 2010SOL    HW3 8039   1.565   1.527   3.303  0.8392 -0.8771  0.1798
 2010SOL    MW4 8040   1.554   1.532   3.389 -0.0809  0.3659  0.0094
 2011SOL     OW 8041   1.327   1.696   3.525 -0.0653 -0.3975  0.1499
 2011SOL    HW2 8042   1.338   1.690   3.620 -0.0590 -0.9973  0.1139
 2011SOL    HW3 8043   1.400   1.645   3.490 -0.3479 -0.5731 -0.1723
 2011SOL    MW4 8044   1.338   1.689   3.533 -0.1018 -0.4998  0.1027
 2012SOL     OW 8045   1.336   1.920   3.362 -0.2452  0.3853 -0.2983
 2012SOL    HW2 8046   1.421   1.957   3.387 -0.0752  0.1950 -0.5877
 2012SOL    HW3 8047   1.325   1.845   3.421  0.5123 -0.5273 -1.2953
 2012SOL    MW4 8048   1.346   1.915   3.373 -0.1228  0.2398 -0.4680
 2013SOL     OW 8049   1.583   2.058   3.492  0.6321 -0.3517  0.4449
 2013SOL    HW2 8050   1.648   2.002   3.450  1.0502 -0.0981  0.7535
 2013SOL    HW3 8051   1.605   2.146   3.462  0.3110 -0.2908  0.3912
 2013SOL    MW4 8052   1.594   2.062   3.482  0.6449 -0.3102  0.4786
 2014SOL     OW 8053   1.600   2.322   3.399  0.4170 -0.6263  0.4430
 2014SOL    HW2 8054   1.521   2.362   3.434  0.1322 -2.2611  1.7562
 2014SOL    HW3 8055   1.593   2.332   3.305  0.5143  2.6484  0.7217
 2014SOL    MW4 8056   1.589   2.329   3.391  0.3923 -0.4100  0.6531
 2015SOL     OW 8057   1.348   2.453   3.477 -0.1091  0.5430  0.1457
 2015SOL    HW2 8058   1.356   2.461   3.572 -0.1804  1.0671  0.1129
 2015SOL    HW3 8059   1.349   2.544   3.446 -0.5621  0.3916 -0.3133
 2015SOL    MW4 8060   1.349   2.466   3.485 -0.1783  0.5922  0.0808
 2016SOL     OW 8061   1.328   2.712   3.379  0.1766  0.0074 -0.7016
 2016SOL    HW2 8062   1.396   2.761   3.425  0.4785  0.4989 -1.6519
 2016SOL    HW3 8063   1.353   2.718   3.287 -0.7514 -0.4427 -0.9845
 2016SOL    MW4 8064   1.340   2.720   3.373  0.0940  0.0128 -0.8643
 2017SOL     OW 8065   1.517   2.846   3.516  0.0788  0.1064  0.1350
 2017SOL    HW2 8066   1.591   2.796   3.482  0.3320  0.4753  0.1425
 2017SOL    HW3 8067   1.533   2.935   3.487 -0.0466  0.3020  0.6674
 2017SOL    MW4 8068   1.529   2.851   3.508  0.0957  0.1809  0.2062
 2018SOL     OW 8069   1.532   3.088   3.390  0.4381 -0.1946  0.2718
 2018SOL    HW2 8070   1.610   3.141   3.406  0.9438 -0.2059 -1.9581
 2018SOL    HW3 8071   1.460   3.140   3.425  1.1963  0.8163  0.3553
 2018SOL    MW4 8072   1.533   3.102   3.397  0.6049 -0.0628 -0.0114
 2019SOL     OW 8073   1.322   3.229   3.491 -0.0962 -0.1291 -0.5036
 2019SOL    HW2 8074   1.313   3.212   3.585 -1.0178  0.6366 -0.4383
 2019SOL    HW3 8075   1.257   3.171   3.450  0.4033 -0.5643 -0.6761
 2019SOL    MW4 8076   1.312   3.219   3.498 -0.1519 -0.0855 -0.5177
 2020SOL     OW 8077   1.357   3.488   3.406 -0.3816  0.5423 -0.4576
 2020SOL    HW2 8078   1.343   3.397   3.432 -0.4565  0.3044 -1.3106
 2020SOL    HW3 8079   1.272   3.531   3.422  0.1353  0.8661  1.5377
 2020SOL    MW4 8080   1.344   3.482   3.411 -0.3233  0.5536 -0.3069
 2021SOL     OW 8081   1.557   3.645   3.497 -0.3896  0.2992  0.3588
 2021SOL    HW2 8082   1.568   3.641   3.592  0.2355 -1.3874  0.2283
 2021SOL    HW3 8083   1.493   3.576   3.477  0.3152 -0.0914 -0.5635
 2021SOL    MW4 8084   1.550   3.635   3.507 -0.2141  0.0252  0.2199
 2022SOL     OW 8085   1.552   3.900   3.394 -0.5169  0.2305  0.6998
 2022SOL    HW2 8086   1.553   3.814   3.436  1.3574  0.0833  0.4282
 2022SOL    HW3 8087   1.560   3.881   3.300  0.4408  0.6890  0.6748
 2022SOL    MW4 8088   1.553   3.886   3.387 -0.1432  0.2716  0.6607
 2023SOL     OW 8089   1.358   4.069   3.500  0.3474 -0.0298  0.6468
 2023SOL    HW2 8090   1.358   4.157   3.463 -0.1604 -0.1684  0.3090
 2023SOL    HW3 8091   1.417   4.019   3.444 -0.9643 -0.4140 -0.4088
 2023SOL    MW4 8092   1.366   4.074   3.488  0.1073 -0.0988  0.4630
 2024SOL     OW 8093   1.364   4.307   3.364  0.0581 -0.5776 -0.7081
 2024SOL    HW2 8094   1.273   4.327   3.387 -0.2135 -0.8896 -1.4812
 2024SOL    HW3 8095   1.364   4.304   3.268  1.3637  1.6158 -0.8003
 2024SOL    MW4 8096   1.352   4.309   3.354  0.1945 -0.3293 -0.8223
 2025SOL     OW 8097   1.604   4.415   3.474 -0.0084 -0.0893  0.2905
 2025SOL    HW2 8098   1.672   4.352   3.448 -0.4094 -0.6524  0.5911
 2025SOL    HW3 8099   1.523   4.379   3.438  0.0328  1.2623 -1.1876
 2025SOL    MW4 8100   1.602   4.402   3.466 -0.0559  0.0147  0.1351
 2026SOL     OW 8101   2.002   0.009   3.367 -0.2683 -0.1361  0.3657
 2026SOL    HW2 8102   2.065   0.050   3.427 -1.3036 -1.1993  2.2081
 2026SOL    HW3 8103   1.917   0.039   3.397 -0.8589 -1.4328  0.0003
 2026SOL    MW4 8104   1.999   0.019   3.379 -0.4828 -0.4474  0.5605
 2027SOL     OW 8105   1.766   0.109   3.444 -0.6463 -0.3693  0.0183
 2027SOL    HW2 8106   1.756   0.104   3.539 -0.3742  1.8205  0.2005
 2027SOL    HW3 8107   1.691   0.061   3.409 -0.8805 -0.9868  1.3442
 2027SOL    MW4 8108   1.755   0.102   3.452 -0.6413 -0.1619  0.2173
 2028SOL     OW 8109   1.807   0.378   3.389 -0.1943  0.0931 -0.0404
 2028SOL    HW2 8110   1.777   0.291   3.416 -0.1810  0.0385 -0.1976
 2028SOL    HW3 8111   1.813   0.372   3.293  0.5812  0.0241  0.0146
 2028SOL    MW4 8112   1.804   0.366   3.380 -0.0902  0.0768 -0.0539
 2029SOL     OW 8113   2.008   0.518   3.482 -0.1092  0.0730 -0.1110
 2029SOL    HW2 8114   2.015   0.605   3.443 -0.2503 -0.2776 -0.9148
 2029SOL    HW3 8115   1.930   0.480   3.442  1.5021 -1.4732 -1.8112
 2029SOL    MW4 8116   1.998   0.525   3.472  0.0848 -0.1772 -0.4414
 2030SOL     OW 8117   2.006   0.769   3.369  0.0719 -0.1019 -0.2401
 2030SOL    HW2 8118   2.081   0.814   3.408 -1.2400  1.4043  0.6118
 2030SOL    HW3 8119   2.023   0.772   3.275  0.2046  1.8794 -0.1809
 2030SOL    MW4 8120   2.019   0.776   3.362 -0.0837  0.3582 -0.1199
 2031SOL     OW 8121   1.787   0.863   3.503 -0.0125  0.4634 -0.2172
 2031SOL    HW2 8122   1.868   0.841   3.457  0.2246  0.8716  0.0026
 2031SOL    HW3 8123   1.718   0.840   3.441  0.2794  0.3449 -0.5029
 2031SOL    MW4 8124   1.789   0.857   3.489  0.0573  0.5016 -0.2259
 2032SOL     OW 8125   1.798   1.119   3.390  0.0429  0.6480  0.4180
 2032SOL    HW2 8126   1.883   1.161   3.406  0.1322  0.7897 -0.3785
 2032SOL    HW3 8127   1.802   1.037   3.439  0.5676  0.7402  0.5370
 2032SOL    MW4 8128   1.810   1.114   3.398  0.1239  0.6788  0.3286
 2033SOL     OW 8129   2.019   1.290   3.467 -0.2370  0.0825  0.0994
 2033SOL    HW2 8130   2.029   1.288   3.562  0.8460  0.0799 -0.0120
 2033SOL    HW3 8131   2.012   1.384   3.446  1.7805  0.2263 -0.0342
 2033SOL    MW4 8132   2.019   1.302   3.477  0.1721  0.1011  0.0671
 2034SOL     OW 8133   2.002   1.551   3.398  0.4078 -0.4361  0.1459
 2034SOL    HW2 8134   2.067   1.598   3.449 -0.9602  2.6606 -0.8298
 2034SOL    HW3 8135   1.918   1.584   3.429 -0.5744 -1.4861 -1.2942
 2034SOL    MW4 8136   1.999   1.562   3.409  0.0977 -0.1660 -0.1728
 2035SOL     OW 8137   1.792   1.660   3.523  0.3354  0.3052  0.1025
 2035SOL    HW2 8138   1.786   1.739   3.468 -0.0793 -0.1756 -0.5530
 2035SOL    HW3 8139   1.723   1.603   3.489  1.0548 -0.5984  0.1531
 2035SOL    MW4 8140   1.782   1.663   3.511  0.3756  0.1225  0.0227
 2036SOL     OW 8141   1.785   1.902   3.374 -0.2641 -0.2753  0.2772
 2036SOL    HW2 8142   1.851   1.956   3.416  0.6476 -1.2985  0.1812
 2036SOL    HW3 8143   1.793   1.921   3.280  0.3471 -0.8734  0.2004
 2036SOL    MW4 8144   1.795   1.911   3.367 -0.0632 -0.4892  0.2544
 2037SOL     OW 8145   1.990   2.045   3.490 -0.0960 -0.0851  0.0495
 2037SOL    HW2 8146   2.068   1.996   3.465 -0.0308 -0.5340  1.0746
 2037SOL    HW3 8147   2.006   2.134   3.457  0.5990 -0.3095 -0.2340
 2037SOL    MW4 8148   2.002   2.050   3.483  0.0043 -0.1739  0.1474
 2038SOL     OW 8149   2.014   2.307   3.393  0.5103 -0.0952 -0.0627
 2038SOL    HW2 8150   2.099   2.345   3.416  0.9321 -0.9757 -0.1608
 2038SOL    HW3 8151   2.016   2.302   3.297 -0.0978  0.9041 -0.1345
 2038SOL    MW4 8152   2.026   2.312   3.383  0.4857 -0.0795 -0.0851
 2039SOL     OW 8153   1.819   2.455   3.497  0.0245  0.1866 -1.2667
 2039SOL    HW2 8154   1.892   2.404   3.462 -0.0120 -0.0160 -1.0523
 2039SOL    HW3 8155   1.741   2.405   3.469 -0.0548  0.6751 -1.9362
 2039SOL    MW4 8156   1.818   2.441   3.488  0.0092  0.2243 -1.3267
 2040SOL     OW 8157   1.758   2.722   3.436 -0.1749 -0.3801  0.2472
 2040SOL    HW2 8158   1.818   2.786   3.474 -1.4429  0.5567  0.7203
 2040SOL    HW3 8159   1.796   2.637   3.458  0.9783  0.1886  0.5107
 2040SOL    MW4 8160   1.771   2.719   3.444 -0.1901 -0.1814  0.3444
 2041SOL     OW 8161   1.982   2.860   3.531 -0.3483 -0.1386  0.1210
 2041SOL    HW2 8162   2.012   2.862   3.622 -0.8341  1.5444  0.2622
 2041SOL    HW3 8163   1.987   2.951   3.502 -1.0126 -0.5290 -1.2697
 2041SOL    MW4 8164   1.986   2.872   3.539 -0.5000  0.0319 -0.0439
 2042SOL     OW 8165   2.004   3.105   3.399 -0.3428 -0.2666 -0.0346
 2042SOL    HW2 8166   2.079   3.151   3.437  0.0896  0.2135 -1.4477
 2042SOL    HW3 8167   1.928   3.150   3.436  0.0734 -0.2296  0.7772
 2042SOL    MW4 8168   2.004   3.117   3.409 -0.2309 -0.1984 -0.1140
 2043SOL     OW 8169   1.770   3.246   3.485  0.2249  0.1693 -0.0280
 2043SOL    HW2 8170   1.778   3.236   3.580  1.7023 -1.5021 -0.3012
 2043SOL    HW3 8171   1.767   3.341   3.472 -1.1447  0.3992  1.7570
 2043SOL    MW4 8172   1.771   3.257   3.496  0.2391 -0.0209  0.1715
 2044SOL     OW 8173   1.772   3.501   3.420 -0.6292 -0.3049 -0.1081
 2044SOL    HW2 8174   1.696   3.554   3.445 -1.1698 -0.1055 -2.0571
 2044SOL    HW3 8175   1.774   3.507   3.324  1.8134 -0.3534 -0.0791
 2044SOL    MW4 8176   1.762   3.509   3.410 -0.3783 -0.2850 -0.3614
 2045SOL     OW 8177   2.014   3.606   3.502 -0.0730 -0.3713  0.8763
 2045SOL    HW2 8178   2.084   3.554   3.464  0.4159  1.2768 -0.5624
 2045SOL    HW3 8179   1.933   3.560   3.478  0.4107 -1.1495  0.7380
 2045SOL    MW4 8180   2.012   3.593   3.494  0.0553 -0.2565  0.6683
 2046SOL     OW 8181   2.031   3.874   3.410  0.5409  0.1325 -0.1286
 2046SOL    HW2 8182   1.945   3.907   3.435  0.5289  0.8975 -1.1508
 2046SOL    HW3 8183   2.030   3.782   3.436  0.0300  0.5517  1.3727
 2046SOL    MW4 8184   2.019   3.866   3.416  0.4719  0.2887 -0.0654
 2047SOL     OW 8185   1.798   4.013   3.521 -0.2536  0.2097  0.2280
 2047SOL    HW2 8186   1.777   4.027   3.613 -0.6587  1.6602 -0.0703
 2047SOL    HW3 8187   1.721   3.971   3.484 -0.3628  0.2552  0.4074
 2047SOL    MW4 8188   1.785   4.009   3.528 -0.3215  0.4071  0.2123
 2048SOL     OW 8189   1.830   4.267   3.391  0.0093  0.0997  0.1026
 2048SOL    HW2 8190   1.842   4.178   3.426 -1.2412 -0.1321 -0.0325
 2048SOL    HW3 8191   1.824   4.255   3.296 -0.9455  0.2458  0.1469
 2048SOL    MW4 8192   1.831   4.253   3.383 -0.2817  0.0884  0.0906
 2049SOL     OW 8193   2.054   4.415   3.466  0.2606 -0.5761  0.3864
 2049SOL    HW2 8194   1.970   4.384   3.432  0.3673  0.3693 -0.7485
 2049SOL    HW3 8195   2.064   4.502   3.428  0.2956  0.5883  2.9692
 2049SOL    MW4 8196   2.044   4.423   3.457  0.2793 -0.2977  0.5774
 2050SOL     OW 8197   2.457   4.662   3.381 -0.1270 -0.1948  0.0716
 2050SOL    HW2 8198   2.455   4.573   3.416 -0.2685 -0.0552  0.4264
 2050SOL    HW3 8199   2.473   4.651   3.287  2.1420 -0.4953  0.4580
 2050SOL    MW4 8200   2.459   4.649   3.373  0.1537 -0.2160  0.1694
 2051SOL     OW 8201   2.242   0.103   3.494 -0.1346  0.2709 -0.1587
 2051SOL    HW2 8202   2.233   0.192   3.461  0.6354  0.4717  0.1736
 2051SOL    HW3 8203   2.320   0.069   3.449  1.1846  0.6891  1.7642
 2051SOL    MW4 8204   2.251   0.110   3.484  0.1411  0.3526  0.1389
 2052SOL     OW 8205   2.200   0.354   3.375  0.4870  0.2720  0.2023
 2052SOL    HW2 8206   2.279   0.391   3.414  0.5645  0.6850 -0.3342
 2052SOL    HW3 8207   2.129   0.406   3.413  0.3264 -1.1824  1.9593
 2052SOL    MW4 8208   2.201   0.366   3.385  0.4760  0.1346  0.3633
 2053SOL     OW 8209   2.431   0.474   3.481 -0.1229 -0.2501 -0.2017
 2053SOL    HW2 8210   2.513   0.432   3.454  1.0608  1.5546  0.5386
 2053SOL    HW3 8211   2.432   0.559   3.438 -1.6889 -0.2560 -0.2870
 2053SOL    MW4 8212   2.442   0.479   3.471 -0.1734 -0.0128 -0.1153
 2054SOL     OW 8213   2.436   0.731   3.383 -0.2594 -0.4082  0.9303
 2054SOL    HW2 8214   2.518   0.751   3.428 -0.8120  1.2099  1.2286
 2054SOL    HW3 8215   2.457   0.739   3.290 -0.0748  0.0357  1.0084
 2054SOL    MW4 8216   2.449   0.735   3.377 -0.3080 -0.1362  0.9799
 2055SOL     OW 8217   2.229   0.888   3.472 -0.3996  0.1047  0.2832
 2055SOL    HW2 8218   2.244   0.970   3.425 -0.5851 -0.0235  0.0011
 2055SOL    HW3 8219   2.300   0.830   3.442 -0.8941 -0.1876 -0.3245
 2055SOL    MW4 8220   2.241   0.891   3.462 -0.4893  0.0492  0.1658
 2056SOL     OW 8221   2.249   1.134   3.359  0.2612  0.1859  0.0611
 2056SOL    HW2 8222   2.329   1.176   3.391  0.0765  1.3469 -0.9911
 2056SOL    HW3 8223   2.178   1.184   3.399  0.0482  0.3615 -0.5336
 2056SOL    MW4 8224   2.250   1.146   3.368  0.2087  0.3623 -0.1562
 2057SOL     OW 8225   2.482   1.246   3.458 -0.2118 -0.5693 -0.4510
 2057SOL    HW2 8226   2.500   1.269   3.550 -0.1885  0.7777 -0.7762
 2057SOL    HW3 8227   2.554   1.187   3.435  1.6508  1.6250 -0.5351
 2057SOL    MW4 8228   2.494   1.241   3.467  0.0370 -0.1021 -0.5050
 2058SOL     OW 8229   2.475   1.533   3.440  0.4153 -0.1988 -0.4147
 2058SOL    HW2 8230   2.492   1.440   3.453 -1.8228 -0.7813 -1.4051
 2058SOL    HW3 8231   2.474   1.544   3.345 -2.8598  0.0923 -0.3979
 2058SOL    MW4 8232   2.477   1.522   3.429 -0.3121 -0.2373 -0.5432
 2059SOL     OW 8233   2.241   1.666   3.516 -0.6400 -0.3082 -0.5918
 2059SOL    HW2 8234   2.260   1.667   3.610 -1.1244 -0.1218 -0.4951
 2059SOL    HW3 8235   2.320   1.631   3.476 -0.6066 -0.8292 -0.0713
 2059SOL    MW4 8236   2.254   1.661   3.523 -0.6995 -0.3523 -0.5104
 2060SOL     OW 8237   2.241   1.923   3.428  0.0590  0.6005  0.0622
 2060SOL    HW2 8238   2.243   1.833   3.460  0.9037  0.4060 -0.5328
 2060SOL    HW3 8239   2.261   1.916   3.334  0.1525  1.4083  0.0155
 2060SOL    MW4 8240   2.244   1.910   3.420  0.1828  0.6814 -0.0225
 2061SOL     OW 8241   2.492   2.059   3.476  0.2873  0.1260  0.0384
 2061SOL    HW2 8242   2.484   2.082   3.568 -0.0126  0.1881 -0.0029
 2061SOL    HW3 8243   2.409   2.016   3.455 -0.0273  0.9840 -0.4554
 2061SOL    MW4 8244   2.480   2.056   3.485  0.2062  0.2474 -0.0322
 2062SOL     OW 8245   2.451   2.318   3.358 -0.1126  0.0958  0.3709
 2062SOL    HW2 8246   2.526   2.358   3.402 -0.2698 -0.0884  0.8105
 2062SOL    HW3 8247   2.455   2.226   3.383  0.1858 -0.1506 -0.5525
 2062SOL    MW4 8248   2.462   2.311   3.367 -0.0940  0.0390  0.3071
 2063SOL     OW 8249   2.234   2.430   3.493 -0.0816 -0.3281 -0.1787
 2063SOL    HW2 8250   2.241   2.520   3.461  0.7772  0.0409  1.0111
 2063SOL    HW3 8251   2.318   2.390   3.470 -0.3104 -0.7134 -0.3504
 2063SOL    MW4 8252   2.246   2.437   3.485  0.0015 -0.3303 -0.0443
 2064SOL     OW 8253   2.213   2.709   3.412  0.1241 -0.1733  0.0452
 2064SOL    HW2 8254   2.133   2.749   3.445  0.8273  1.1911  0.1337
 2064SOL    HW3 8255   2.201   2.708   3.317  0.3326  0.7783  0.0020
 2064SOL    MW4 8256   2.201   2.715   3.404  0.2444  0.1323  0.0512
 2065SOL     OW 8257   2.441   2.838   3.535 -0.2444  0.0489 -0.0938
 2065SOL    HW2 8258   2.427   2.922   3.491  0.6472 -0.7941 -2.0078
 2065SOL    HW3 8259   2.363   2.787   3.514  0.2298 -0.3904 -0.8120
 2065SOL    MW4 8260   2.429   2.842   3.526 -0.0642 -0.1203 -0.4411
 2066SOL     OW 8261   2.439   3.095   3.390  0.0100 -0.2679  0.0644
 2066SOL    HW2 8262   2.527   3.129   3.405 -0.7532  1.3625  0.9390
 2066SOL    HW3 8263   2.430   3.093   3.294  0.6885  0.3312 -0.0105
 2066SOL    MW4 8264   2.450   3.099   3.379 -0.0011  0.0262  0.1699
 2067SOL     OW 8265   2.232   3.258   3.485  0.0366  0.5362  0.3406
 2067SOL    HW2 8266   2.228   3.260   3.580 -0.0268  1.0836  0.3313
 2067SOL    HW3 8267   2.305   3.200   3.465 -1.3581 -1.3632  0.6881
 2067SOL    MW4 8268   2.241   3.251   3.495 -0.1558  0.3578  0.3852
 2068SOL     OW 8269   2.264   3.508   3.400 -0.3957  0.2979  0.2006
 2068SOL    HW2 8270   2.268   3.416   3.427 -1.4417  0.6541  1.6336
 2068SOL    HW3 8271   2.249   3.504   3.306 -0.1013 -0.9990  0.1946
 2068SOL    MW4 8272   2.263   3.495   3.391 -0.4949  0.1737  0.3889
 2069SOL     OW 8273   2.493   3.612   3.475  0.1001 -0.0199  0.1050
 2069SOL    HW2 8274   2.488   3.706   3.456  0.6729 -0.5151 -2.7272
 2069SOL    HW3 8275   2.407   3.578   3.451 -0.0927 -0.2416  1.0933
 2069SOL    MW4 8276   2.481   3.620   3.469  0.1502 -0.1145 -0.1383
 2070SOL     OW 8277   2.456   3.875   3.391 -0.5225 -0.0725  0.4379
 2070SOL    HW2 8278   2.532   3.917   3.430 -0.4411  1.9301 -1.7875
 2070SOL    HW3 8279   2.381   3.917   3.432 -0.4467 -0.1551  0.6639
 2070SOL    MW4 8280   2.456   3.886   3.401 -0.5018  0.1808  0.1741
 2071SOL     OW 8281   2.258   4.018   3.525  0.1840  0.1953 -0.0886
 2071SOL    HW2 8282   2.267   4.096   3.470  0.6379  0.1161 -0.1321
 2071SOL    HW3 8283   2.171   3.984   3.505 -0.2858  1.0656  0.4272
 2071SOL    MW4 8284   2.248   4.024   3.515  0.1819  0.2997 -0.0263
 2072SOL     OW 8285   2.274   4.262   3.382 -0.4854 -0.0862  0.0998
 2072SOL    HW2 8286   2.201   4.322   3.399 -0.1869  0.1513  0.5556
 2072SOL    HW3 8287   2.260   4.231   3.292 -1.5208 -0.5588  0.4148
 2072SOL    MW4 8288   2.262   4.266   3.373 -0.5827 -0.1173  0.2015
 2073SOL     OW 8289   2.484   4.412   3.498 -0.2735 -0.0272 -0.6964
 2073SOL    HW2 8290   2.484   4.396   3.592  1.7423 -2.2034 -1.0108
 2073SOL    HW3 8291   2.408   4.364   3.465  0.8147 -1.9081 -0.5411
 2073SOL    MW4 8292   2.474   4.403   3.506  0.1360 -0.5625 -0.7174
 2074SOL     OW 8293   2.934   4.645   3.405 -0.4357 -0.2777  0.1072
 2074SOL    HW2 8294   2.862   4.705   3.424 -0.6465 -0.0149 -1.4814
 2074SOL    HW3 8295   2.945   4.650   3.310  1.6670 -0.3197  0.3280
 2074SOL    MW4 8296   2.926   4.654   3.395 -0.1861 -0.2486 -0.0733
 2075SOL     OW 8297   2.676   0.129   3.487 -0.4691 -0.0698 -0.4898
 2075SOL    HW2 8298   2.678   0.218   3.452 -1.8159  0.8087  1.5888
 2075SOL    HW3 8299   2.601   0.088   3.443 -0.1599 -0.0125 -1.0691
 2075SOL    MW4 8300   2.666   0.135   3.476 -0.6060  0.0537 -0.2920
 2076SOL     OW 8301   2.682   0.382   3.387 -0.6623 -0.1815  0.3309
 2076SOL    HW2 8302   2.773   0.394   3.415 -0.5056 -2.0175  0.6901
 2076SOL    HW3 8303   2.688   0.368   3.293 -0.6872  0.8519  0.1741
 2076SOL    MW4 8304   2.695   0.382   3.378 -0.6449 -0.2874  0.3576
 2077SOL     OW 8305   2.941   0.423   3.457 -0.1479 -0.4911 -0.2406
 2077SOL    HW2 8306   2.946   0.422   3.552  1.0572 -0.9905 -0.2935
 2077SOL    HW3 8307   2.935   0.516   3.435  0.1464 -0.3419  0.2983
 2077SOL    MW4 8308   2.941   0.435   3.467  0.0500 -0.5373 -0.1765
 2078SOL     OW 8309   2.929   0.697   3.415  0.1297  0.0964 -0.1983
 2078SOL    HW2 8310   2.988   0.762   3.453 -0.7111  0.2384  0.9052
 2078SOL    HW3 8311   2.842   0.724   3.444 -0.4465 -0.3184 -1.4936
 2078SOL    MW4 8312   2.925   0.709   3.424 -0.0573  0.0604 -0.2236
 2079SOL     OW 8313   2.685   0.828   3.498  0.1446  0.6172 -0.1388
 2079SOL    HW2 8314   2.687   0.868   3.584  2.4007 -0.0423  0.1352
 2079SOL    HW3 8315   2.701   0.900   3.437  0.6914  0.7155  0.1249
 2079SOL    MW4 8316   2.687   0.843   3.501  0.5144  0.5431 -0.0679
 2080SOL     OW 8317   2.728   1.068   3.376  0.0380 -0.0236 -0.0961
 2080SOL    HW2 8318   2.803   1.117   3.412  0.0008 -0.9750  1.3153
 2080SOL    HW3 8319   2.724   1.095   3.285  0.3696  2.1936  0.4994
 2080SOL    MW4 8320   2.738   1.078   3.369  0.0768  0.1434  0.1687
 2081SOL     OW 8321   2.911   1.225   3.485  0.2048 -0.0462  0.3743
 2081SOL    HW2 8322   2.913   1.220   3.580 -1.3478 -0.4041  0.4060
 2081SOL    HW3 8323   2.993   1.185   3.457  1.4445  1.5688  1.5952
 2081SOL    MW4 8324   2.922   1.219   3.493  0.1635  0.1196  0.5396
 2082SOL     OW 8325   2.954   1.484   3.392 -0.1879  0.0839 -0.6212
 2082SOL    HW2 8326   2.894   1.544   3.436  0.9637  0.0854  1.0380
 2082SOL    HW3 8327   2.924   1.397   3.419  0.2930  0.0701 -0.1174
 2082SOL    MW4 8328   2.942   1.480   3.402  0.0275  0.0823 -0.3358
 2083SOL     OW 8329   2.730   1.623   3.501  0.0235  0.4072  0.2145
 2083SOL    HW2 8330   2.726   1.717   3.481 -1.3157  0.1544 -0.7461
 2083SOL    HW3 8331   2.641   1.591   3.486  0.7813 -1.2866 -0.8284
 2083SOL    MW4 8332   2.718   1.632   3.496 -0.0532  0.1504 -0.0498
 2084SOL     OW 8333   2.714   1.892   3.418 -0.3391  0.2258 -0.4420
 2084SOL    HW2 8334   2.634   1.938   3.440 -0.3989  0.0751 -0.3374
 2084SOL    HW3 8335   2.700   1.860   3.329 -0.9848 -1.0427  0.0921
 2084SOL    MW4 8336   2.702   1.894   3.409 -0.4321  0.0386 -0.3577
 2085SOL     OW 8337   2.929   2.079   3.447 -0.4422  0.5246 -0.1341
 2085SOL    HW2 8338   2.928   2.092   3.542  0.8778  0.6698 -0.1219
 2085SOL    HW3 8339   2.855   2.022   3.430 -1.5472  1.6484  0.8044
 2085SOL    MW4 8340   2.919   2.073   3.457 -0.4139  0.6921 -0.0087
 2086SOL     OW 8341   2.925   2.335   3.372 -0.1217  0.1119  0.0622
 2086SOL    HW2 8342   2.928   2.245   3.402 -2.1201  0.3741  1.0615
 2086SOL    HW3 8343   2.915   2.328   3.277  0.0222 -0.7117  0.1040
 2086SOL    MW4 8344   2.924   2.323   3.363 -0.3664  0.0379  0.1995
 2087SOL     OW 8345   2.660   2.462   3.464  0.1142  0.3176  0.1876
 2087SOL    HW2 8346   2.663   2.457   3.560  0.1141 -0.8106  0.1311
 2087SOL    HW3 8347   2.734   2.411   3.434 -0.5843 -0.3442 -0.4418
 2087SOL    MW4 8348   2.670   2.455   3.473  0.0220  0.0815  0.0971
 2088SOL     OW 8349   2.647   2.724   3.400  0.3069 -0.7161 -0.0059
 2088SOL    HW2 8350   2.647   2.635   3.438 -1.9702 -0.9922 -0.6060
 2088SOL    HW3 8351   2.570   2.766   3.437  0.4210  0.4477 -1.0634
 2088SOL    MW4 8352   2.637   2.717   3.410  0.0215 -0.5990 -0.2246
 2089SOL     OW 8353   2.893   2.844   3.481  0.0740 -0.0749  0.5073
 2089SOL    HW2 8354   2.904   2.857   3.575  0.0076 -0.9901  0.6451
 2089SOL    HW3 8355   2.809   2.799   3.473 -0.2814  0.6847 -0.0423
 2089SOL    MW4 8356   2.883   2.840   3.492  0.0183 -0.0954  0.4529
 2090SOL     OW 8357   2.901   3.099   3.386  0.1970  0.0641 -0.3344
 2090SOL    HW2 8358   2.864   3.011   3.387 -0.1059  0.1814 -1.3939
 2090SOL    HW3 8359   2.924   3.115   3.295  1.6255  0.5110  0.0804
 2090SOL    MW4 8360   2.899   3.089   3.374  0.3455  0.1385 -0.4194
 2091SOL     OW 8361   2.682   3.215   3.509  0.5332  0.0797  0.3018
 2091SOL    HW2 8362   2.688   3.212   3.604 -0.3733  0.5466  0.3798
 2091SOL    HW3 8363   2.763   3.175   3.478  0.1459 -1.4887  1.2637
 2091SOL    MW4 8364   2.693   3.209   3.518  0.3625 -0.0656  0.4390
 2092SOL     OW 8365   2.735   3.470   3.419  0.1801  0.3856 -0.0345
 2092SOL    HW2 8366   2.708   3.386   3.455 -0.2433 -0.3517 -2.0274
 2092SOL    HW3 8367   2.667   3.531   3.446 -0.4647 -0.2867 -0.1354
 2092SOL    MW4 8368   2.723   3.467   3.428  0.0392  0.1996 -0.3108
 2093SOL     OW 8369   2.966   3.593   3.496  0.2633  0.0424 -0.2100
 2093SOL    HW2 8370   2.941   3.685   3.483  2.0652  0.4772 -0.7227
 2093SOL    HW3 8371   2.895   3.543   3.456 -0.0013  1.2268 -1.2542
 2093SOL    MW4 8372   2.953   3.599   3.489  0.4661  0.2561 -0.4154
 2094SOL     OW 8373   2.883   3.843   3.422 -0.3115  0.2124 -0.2823
 2094SOL    HW2 8374   2.959   3.901   3.425 -0.2260  0.1345 -0.9353
 2094SOL    HW3 8375   2.811   3.896   3.456 -0.2639  0.7490 -1.0040
 2094SOL    MW4 8376   2.884   3.858   3.427 -0.2939  0.2729 -0.4637
 2095SOL     OW 8377   2.678   4.003   3.482 -0.1011  0.1500 -0.2147
 2095SOL    HW2 8378   2.687   4.017   3.576 -0.6810 -1.1047  0.0268
 2095SOL    HW3 8379   2.679   4.091   3.445 -0.5005  0.6804  1.0160
 2095SOL    MW4 8380   2.680   4.017   3.489 -0.2303  0.0544 -0.0205
 2096SOL     OW 8381   2.685   4.244   3.370  0.1167 -0.5365  0.0183
 2096SOL    HW2 8382   2.761   4.278   3.418  0.3268 -1.6524  0.4877
 2096SOL    HW3 8383   2.615   4.306   3.391  0.6945  0.0529  0.2275
 2096SOL    MW4 8384   2.686   4.257   3.379  0.2207 -0.6059  0.1079
 2097SOL     OW 8385   2.916   4.359   3.476  0.3523  0.2507  0.3177
 2097SOL    HW2 8386   2.924   4.362   3.571 -3.2626 -0.1960  0.6887
 2097SOL    HW3 8387   2.922   4.451   3.448  1.0543  0.4128  0.9840
 2097SOL    MW4 8388   2.918   4.372   3.485 -0.0320  0.2132  0.4546
 2098SOL     OW 8389   3.401   4.612   3.414  0.1396  0.1435 -0.5271
 2098SOL    HW2 8390   3.320   4.659   3.433  0.1051 -0.6540  1.3280
 2098SOL    HW3 8391   3.407   4.614   3.318 -0.2023  3.3080 -0.5440
 2098SOL    MW4 8392   3.392   4.619   3.404  0.0899  0.4558 -0.2846
 2099SOL     OW 8393   3.167   0.069   3.505 -0.1931  0.4419 -0.4620
 2099SOL    HW2 8394   3.177   0.153   3.461 -0.4718  1.0481  0.6063
 2099SOL    HW3 8395   3.097   0.025   3.457  0.7080  0.3441 -1.7184
 2099SOL    MW4 8396   3.159   0.074   3.493 -0.1110  0.5090 -0.4868
 2100SOL     OW 8397   3.181   0.317   3.390 -0.3348 -0.1354 -0.0751
 2100SOL    HW2 8398   3.099   0.356   3.419  0.6435  0.9425  1.3300
 2100SOL    HW3 8399   3.174   0.312   3.295 -2.9155 -2.0974  0.1500
 2100SOL    MW4 8400   3.169   0.321   3.382 -0.5462 -0.2520  0.1400
 2101SOL     OW 8401   3.372   0.478   3.470 -0.3241 -0.1070  0.3563
 2101SOL    HW2 8402   3.374   0.465   3.564 -0.4993  0.0164  0.3774
 2101SOL    HW3 8403   3.300   0.423   3.440  0.6371 -1.2614  0.1196
 2101SOL    MW4 8404   3.363   0.469   3.478 -0.2204 -0.2430  0.3279
 2102SOL     OW 8405   3.356   0.731   3.397  0.0233 -0.2214  0.2895
 2102SOL    HW2 8406   3.436   0.771   3.432  0.0285 -0.7148  0.8526
 2102SOL    HW3 8407   3.358   0.641   3.429 -1.6396  0.2424  1.8014
 2102SOL    MW4 8408   3.367   0.724   3.406 -0.1954 -0.2253  0.5633
 2103SOL     OW 8409   3.142   0.849   3.518  0.1258  0.1503  0.4557
 2103SOL    HW2 8410   3.154   0.936   3.480  0.0861 -0.2492 -0.4815
 2103SOL    HW3 8411   3.203   0.793   3.470  0.2148 -0.3231  1.1187
 2103SOL    MW4 8412   3.152   0.853   3.507  0.1323  0.0351  0.4195
 2104SOL     OW 8413   3.152   1.097   3.417 -0.0331 -0.2611 -0.1272
 2104SOL    HW2 8414   3.227   1.151   3.442 -0.8727  1.3453 -0.9943
 2104SOL    HW3 8415   3.155   1.095   3.321 -1.8590  0.9772 -0.2405
 2104SOL    MW4 8416   3.163   1.104   3.407 -0.3848  0.1142 -0.2565
 2105SOL     OW 8417   3.360   1.253   3.511  0.0207  0.0282  0.4114
 2105SOL    HW2 8418   3.437   1.197   3.503  0.5404  0.6732  0.8885
 2105SOL    HW3 8419   3.388   1.338   3.479 -0.3082  0.4266  1.1708
 2105SOL    MW4 8420   3.374   1.257   3.506  0.0459  0.1659  0.5746
 2106SOL     OW 8421   3.410   1.498   3.406 -0.4672  0.4224  0.0984
 2106SOL    HW2 8422   3.484   1.542   3.448 -0.2574 -0.2685  0.4620
 2106SOL    HW3 8423   3.333   1.545   3.436 -0.1725  1.1351 -0.2686
 2106SOL    MW4 8424   3.410   1.510   3.416 -0.4006  0.4253  0.0980
 2107SOL     OW 8425   3.179   1.646   3.492 -0.2408  0.0521 -0.1167
 2107SOL    HW2 8426   3.154   1.738   3.483  1.0887  0.3910 -0.5012
 2107SOL    HW3 8427   3.103   1.597   3.462 -0.4713  1.0522 -1.1911
 2107SOL    MW4 8428   3.166   1.651   3.487 -0.0958  0.2288 -0.3092
 2108SOL     OW 8429   3.144   1.908   3.418  0.3198 -0.4113 -0.1638
 2108SOL    HW2 8430   3.074   1.971   3.436  2.8034  2.4809 -0.1886
 2108SOL    HW3 8431   3.148   1.904   3.322 -0.5019 -1.4068 -0.1624
 2108SOL    MW4 8432   3.135   1.916   3.408  0.5391 -0.1610 -0.1669
 2109SOL     OW 8433   3.386   2.100   3.445  0.1617  0.4555  0.0373
 2109SOL    HW2 8434   3.369   2.187   3.410  1.7846  1.8503  2.5910
 2109SOL    HW3 8435   3.308   2.050   3.423 -0.1201  2.0507 -2.9119
 2109SOL    MW4 8436   3.374   2.105   3.437  0.3386  0.8500 -0.0149
 2110SOL     OW 8437   3.361   2.360   3.371 -0.2584 -0.6244  0.0997
 2110SOL    HW2 8438   3.432   2.382   3.430  0.2997 -0.7165 -0.5351
 2110SOL    HW3 8439   3.283   2.396   3.413  0.1232 -0.7196  0.9080
 2110SOL    MW4 8440   3.360   2.367   3.384 -0.1345 -0.6491  0.1226
 2111SOL     OW 8441   3.139   2.446   3.481  0.1848  0.2557 -0.0832
 2111SOL    HW2 8442   3.133   2.536   3.448  0.0058  0.2420 -0.0918
 2111SOL    HW3 8443   3.066   2.400   3.438 -0.4331  0.3944  0.8039
 2111SOL    MW4 8444   3.128   2.452   3.471  0.0796  0.2722  0.0327
 2112SOL     OW 8445   3.120   2.701   3.391 -0.1301 -0.1337 -0.0509
 2112SOL    HW2 8446   3.195   2.752   3.421 -0.9419 -0.1274  2.0846
 2112SOL    HW3 8447   3.044   2.754   3.416 -0.9207 -1.4676  0.4741
 2112SOL    MW4 8448   3.120   2.715   3.399 -0.3415 -0.3089  0.3001
 2113SOL     OW 8449   3.371   2.812   3.474  0.2174  0.3084  0.2615
 2113SOL    HW2 8450   3.444   2.765   3.433 -0.2476  0.3203 -0.5943
 2113SOL    HW3 8451   3.379   2.901   3.439  0.3117  0.5322  0.8496
 2113SOL    MW4 8452   3.382   2.818   3.464  0.1685  0.3395  0.2262
 2114SOL     OW 8453   3.353   3.072   3.386  0.2030 -0.4041 -0.3063
 2114SOL    HW2 8454   3.421   3.128   3.425  0.5998 -1.9896  1.3672
 2114SOL    HW3 8455   3.272   3.100   3.429  0.0308  0.4470 -1.1755
 2114SOL    MW4 8456   3.351   3.083   3.397  0.2326 -0.5010 -0.2002
 2115SOL     OW 8457   3.147   3.180   3.512  0.4407  0.4203 -0.1369
 2115SOL    HW2 8458   3.150   3.271   3.483  1.9362  0.2052 -0.6852
 2115SOL    HW3 8459   3.068   3.144   3.472  0.3174  1.2392 -0.6258
 2115SOL    MW4 8460   3.137   3.187   3.503  0.6217  0.4999 -0.2737
 2116SOL     OW 8461   3.177   3.421   3.419  0.3900  0.0247 -0.3138
 2116SOL    HW2 8462   3.113   3.478   3.460 -0.8873 -1.4564 -0.2067
 2116SOL    HW3 8463   3.168   3.438   3.325 -1.3656 -1.3959 -0.4226
 2116SOL    MW4 8464   3.167   3.431   3.412 -0.0101 -0.3581 -0.3140
 2117SOL     OW 8465   3.400   3.569   3.497 -0.2317 -0.2726  0.5190
 2117SOL    HW2 8466   3.371   3.660   3.497 -1.5384 -0.6837  1.0255
 2117SOL    HW3 8467   3.321   3.517   3.486  0.5637 -1.3467 -0.3128
 2117SOL    MW4 8468   3.386   3.574   3.496 -0.2992 -0.4686  0.4761
 2118SOL     OW 8469   3.339   3.830   3.391  0.5098 -0.4275  0.3698
 2118SOL    HW2 8470   3.412   3.883   3.423  0.1795  0.8545 -0.9369
 2118SOL    HW3 8471   3.262   3.886   3.404  0.2389 -0.3173 -1.6063
 2118SOL    MW4 8472   3.338   3.844   3.397  0.4305 -0.2438 -0.0633
 2119SOL     OW 8473   3.119   4.002   3.465 -0.3039  0.1387 -0.4873
 2119SOL    HW2 8474   3.126   4.017   3.560  1.8596 -0.7532 -0.4746
 2119SOL    HW3 8475   3.146   4.085   3.426  2.2586 -0.5879 -0.3319
 2119SOL    MW4 8476   3.123   4.015   3.473  0.3196 -0.0748 -0.4652
 2120SOL     OW 8477   3.177   4.273   3.389 -0.1445 -0.9396 -0.1542
 2120SOL    HW2 8478   3.259   4.303   3.428 -0.5964  1.0972 -0.7014
 2120SOL    HW3 8479   3.109   4.307   3.447 -0.6505 -1.9403 -0.1427
 2120SOL    MW4 8480   3.179   4.281   3.402 -0.2709 -0.8029 -0.2249
 2121SOL     OW 8481   3.403   4.361   3.507 -0.0103 -0.1383 -0.2542
 2121SOL    HW2 8482   3.380   4.383   3.598  0.9442 -0.6091  0.1045
 2121SOL    HW3 8483   3.424   4.446   3.467 -1.5574  0.2148 -0.3788
 2121SOL    MW4 8484   3.402   4.375   3.514 -0.0885 -0.1538 -0.2233
 2122SOL     OW 8485   3.843   4.623   3.426 -0.2331 -0.2965 -0.1695
 2122SOL    HW2 8486   3.761   4.652   3.466 -0.9069 -0.8300 -1.1410
 2122SOL    HW3 8487   3.822   4.609   3.333  1.0730  0.0319 -0.5360
 2122SOL    MW4 8488   3.830   4.625   3.419 -0.1497 -0.3236 -0.3460
 2123SOL     OW 8489   3.620   0.094   3.521 -0.0525 -0.2584  0.2205
 2123SOL    HW2 8490   3.600   0.183   3.494  0.0491 -0.6108 -1.0547
 2123SOL    HW3 8491   3.543   0.043   3.497 -0.2374 -0.4779  1.2211
 2123SOL    MW4 8492   3.607   0.099   3.515 -0.0635 -0.3338  0.1842
 2124SOL     OW 8493   3.615   0.365   3.431 -0.4339  0.3954 -0.3432
 2124SOL    HW2 8494   3.680   0.406   3.489  0.2081 -0.3618 -0.5192
 2124SOL    HW3 8495   3.533   0.410   3.451  0.1170  1.2580 -0.0085
 2124SOL    MW4 8496   3.613   0.376   3.442 -0.2765  0.4093 -0.3223
 2125SOL     OW 8497   3.823   0.483   3.569 -0.1937 -0.0442 -0.3070
 2125SOL    HW2 8498   3.841   0.475   3.663  0.6424 -0.2090 -0.4808
 2125SOL    HW3 8499   3.899   0.443   3.527 -0.0182  1.0845 -1.0737
 2125SOL    MW4 8500   3.835   0.477   3.576 -0.0602  0.0830 -0.4311
 2126SOL     OW 8501   3.820   0.717   3.407  0.4896 -0.4114 -0.6796
 2126SOL    HW2 8502   3.898   0.767   3.430  0.4276 -1.1820  1.2911
 2126SOL    HW3 8503   3.818   0.645   3.471 -1.7698 -0.4506 -0.7593
 2126SOL    MW4 8504   3.830   0.714   3.419  0.1833 -0.5182 -0.4301
 2127SOL     OW 8505   3.594   0.852   3.496 -0.3844 -0.0379  0.0846
 2127SOL    HW2 8506   3.602   0.856   3.591  1.4320  1.8173 -0.1061
 2127SOL    HW3 8507   3.670   0.802   3.467 -0.2701  0.4331 -0.4489
 2127SOL    MW4 8508   3.605   0.846   3.504 -0.1297  0.2690 -0.0109
 2128SOL     OW 8509   3.606   1.118   3.441  0.0299 -0.0724  0.0421
 2128SOL    HW2 8510   3.605   1.024   3.459  0.4896 -0.3984 -1.5731
 2128SOL    HW3 8511   3.585   1.125   3.348 -0.0621  1.4294  0.1654
 2128SOL    MW4 8512   3.603   1.107   3.431  0.0784  0.0827 -0.1547
 2129SOL     OW 8513   3.836   1.245   3.538 -0.3688  0.0892 -0.2514
 2129SOL    HW2 8514   3.838   1.242   3.633 -0.1530  0.4001 -0.2452
 2129SOL    HW3 8515   3.756   1.198   3.514 -0.8967  0.7837  0.1194
 2129SOL    MW4 8516   3.826   1.239   3.547 -0.4100  0.2218 -0.2017
 2130SOL     OW 8517   3.872   1.519   3.399  0.1461  0.1436  0.0887
 2130SOL    HW2 8518   3.950   1.562   3.433  0.7237 -0.3886 -0.5304
 2130SOL    HW3 8519   3.875   1.431   3.437  0.2657 -0.1307 -0.5460
 2130SOL    MW4 8520   3.883   1.513   3.409  0.2381  0.0372 -0.0767
 2131SOL     OW 8521   3.635   1.644   3.492  0.2734  0.1570  0.4161
 2131SOL    HW2 8522   3.645   1.731   3.453 -0.5077 -0.5878 -1.5053
 2131SOL    HW3 8523   3.721   1.603   3.481 -0.0083 -0.1287 -0.7217
 2131SOL    MW4 8524   3.648   1.650   3.485  0.1332  0.0211  0.0124
 2132SOL     OW 8525   3.610   1.920   3.401  0.9568  0.3092  0.2103
 2132SOL    HW2 8526   3.690   1.955   3.440  0.0151  2.1381  0.5571
 2132SOL    HW3 8527   3.544   1.986   3.419 -0.4963 -0.8867 -0.6367
 2132SOL    MW4 8528   3.612   1.933   3.408  0.6409  0.3927  0.1443
 2133SOL     OW 8529   3.845   2.027   3.508  0.0799  0.0087 -0.0047
 2133SOL    HW2 8530   3.833   2.019   3.603 -0.9260 -2.0494 -0.2673
 2133SOL    HW3 8531   3.936   2.002   3.493  0.2719  0.4445  0.4196
 2133SOL    MW4 8532   3.855   2.023   3.518 -0.0275 -0.2053  0.0166
 2134SOL     OW 8533   3.823   2.302   3.432 -0.0698  0.4492  0.7860
 2134SOL    HW2 8534   3.915   2.325   3.445 -0.0180 -0.4488  2.0633
 2134SOL    HW3 8535   3.815   2.214   3.468 -0.9858 -0.2824 -1.1638
 2134SOL    MW4 8536   3.834   2.294   3.439 -0.1838  0.2342  0.6973
 2135SOL     OW 8537   3.578   2.420   3.535 -0.3787  0.4368  0.4737
 2135SOL    HW2 8538   3.585   2.510   3.502  0.5143  0.3720  0.4700
 2135SOL    HW3 8539   3.648   2.373   3.491 -0.2553 -0.0451  1.1761
 2135SOL    MW4 8540   3.588   2.426   3.525 -0.2446  0.3647  0.5659
 2136SOL     OW 8541   3.586   2.659   3.418  0.0978  0.2936  0.1627
 2136SOL    HW2 8542   3.671   2.691   3.447  0.5121 -0.8443  0.2156
 2136SOL    HW3 8543   3.589   2.666   3.322  0.1606  0.4545  0.1755
 2136SOL    MW4 8544   3.597   2.664   3.409  0.1608  0.1647  0.1714
 2137SOL     OW 8545   3.831   2.785   3.482 -0.4594 -0.1760 -0.2439
 2137SOL    HW2 8546   3.831   2.793   3.577 -1.2822 -0.5692 -0.2026
 2137SOL    HW3 8547   3.837   2.875   3.451 -0.3862 -0.0330  0.1808
 2137SOL    MW4 8548   3.832   2.798   3.490 -0.5583 -0.2090 -0.1825
 2138SOL     OW 8549   3.818   3.047   3.413  0.4217  0.0099 -0.0630
 2138SOL    HW2 8550   3.894   3.100   3.437  1.9052 -2.4033  0.8360
 2138SOL    HW3 8551   3.812   3.054   3.318  1.0420  1.1464 -0.0261
 2138SOL    MW4 8552   3.827   3.055   3.404  0.6993 -0.1585  0.0605
 2139SOL     OW 8553   3.587   3.214   3.485  0.2334  0.1826 -0.0582
 2139SOL    HW2 8554   3.606   3.296   3.439  2.4726  0.0226  0.5420
 2139SOL    HW3 8555   3.648   3.151   3.448 -0.2018 -0.7681  0.8139
 2139SOL    MW4 8556   3.598   3.216   3.474  0.4714  0.0361  0.1360
 2140SOL     OW 8557   3.614   3.470   3.352 -0.2054 -0.0099 -0.0754
 2140SOL    HW2 8558   3.539   3.504   3.400  0.5851  0.8309  0.6035
 2140SOL    HW3 8559   3.590   3.477   3.260 -0.8803  0.4482  0.1345
 2140SOL    MW4 8560   3.601   3.476   3.346 -0.1901  0.1614  0.0419
 2141SOL     OW 8561   3.832   3.583   3.487 -1.0026 -0.0180  0.0280
 2141SOL    HW2 8562   3.806   3.580   3.579  0.1201  1.6717  0.4230
 2141SOL    HW3 8563   3.753   3.557   3.439 -1.4309 -1.4647  1.4768
 2141SOL    MW4 8564   3.818   3.579   3.492 -0.9110  0.0140  0.2713
 2142SOL     OW 8565   3.808   3.840   3.390  0.3021 -0.0164 -0.0217
 2142SOL    HW2 8566   3.737   3.889   3.431  1.3007  0.7945  0.7733
 2142SOL    HW3 8567   3.807   3.754   3.433  0.5743  0.4165  0.8587
 2142SOL    MW4 8568   3.799   3.835   3.401  0.4698  0.1478  0.1994
 2143SOL     OW 8569   3.581   3.929   3.503 -0.0901 -0.0284  0.2121
 2143SOL    HW2 8570   3.571   3.955   3.594 -0.5548 -2.3333  0.8633
 2143SOL    HW3 8571   3.572   4.010   3.453 -0.1787  1.2032  2.1813
 2143SOL    MW4 8572   3.579   3.943   3.508 -0.1631 -0.1700  0.5578
 2144SOL     OW 8573   3.623   4.200   3.422  0.3132 -0.1904  0.3237
 2144SOL    HW2 8574   3.551   4.245   3.467  0.8367  0.8530  0.1367
 2144SOL    HW3 8575   3.613   4.226   3.330  3.0500  2.9632  0.7998
 2144SOL    MW4 8576   3.612   4.210   3.416  0.7433  0.3633  0.3619
 2145SOL     OW 8577   3.830   4.358   3.527  0.7430 -0.0761  0.2476
 2145SOL    HW2 8578   3.753   4.311   3.496  1.1229 -0.2064 -0.4953
 2145SOL    HW3 8579   3.828   4.442   3.480 -0.3999  1.0213  2.1892
 2145SOL    MW4 8580   3.820   4.363   3.517  0.6424  0.0515  0.4057
 2146SOL     OW 8581   4.269   4.635   3.412 -0.0211  0.0771  0.4052
 2146SOL    HW2 8582   4.285   4.552   3.457  0.4222 -0.8079 -1.3400
 2146SOL    HW3 8583   4.342   4.691   3.439  0.2286 -0.4371  0.7969
 2146SOL    MW4 8584   4.281   4.632   3.422  0.0704 -0.1075  0.2266
 2147SOL     OW 8585   4.067   0.105   3.530  0.0185  0.1080  0.3133
 2147SOL    HW2 8586   4.144   0.069   3.487 -0.1438  0.7827 -0.5736
 2147SOL    HW3 8587   3.993   0.061   3.487 -0.1746  1.3534 -0.6809
 2147SOL    MW4 8588   4.067   0.094   3.518 -0.0284  0.3614  0.0651
 2148SOL     OW 8589   4.057   0.365   3.456 -0.0415 -0.0680  0.4255
 2148SOL    HW2 8590   4.059   0.275   3.488 -0.1321  0.4342  1.8462
 2148SOL    HW3 8591   4.030   0.356   3.364  0.5037 -1.5252  0.3926
 2148SOL    MW4 8592   4.054   0.352   3.448  0.0185 -0.1940  0.6086
 2149SOL     OW 8593   4.271   0.502   3.524 -0.1635 -0.1714 -0.0741
 2149SOL    HW2 8594   4.256   0.584   3.476 -0.1931  0.6757  1.3429
 2149SOL    HW3 8595   4.196   0.447   3.502 -0.4399  0.4105 -0.5971
 2149SOL    MW4 8596   4.259   0.506   3.515 -0.2038  0.0171  0.0439
 2150SOL     OW 8597   4.255   0.740   3.407 -0.3893  0.4687 -0.5033
 2150SOL    HW2 8598   4.338   0.770   3.445  0.6466 -1.2174 -1.3774
 2150SOL    HW3 8599   4.271   0.739   3.313  0.0732 -3.9039 -0.5059
 2150SOL    MW4 8600   4.268   0.744   3.400 -0.1916 -0.3306 -0.6190
 2151SOL     OW 8601   4.035   0.889   3.464  0.1051 -0.2581  0.1350
 2151SOL    HW2 8602   4.050   0.984   3.456 -1.6996 -0.0792 -1.5173
 2151SOL    HW3 8603   4.117   0.849   3.434 -0.0437  0.7442 -1.6353
 2151SOL    MW4 8604   4.048   0.897   3.459 -0.1526 -0.1023 -0.3166
 2152SOL     OW 8605   4.069   1.173   3.411  0.1211  0.1058  0.1381
 2152SOL    HW2 8606   4.129   1.234   3.453 -1.2547  1.8142 -0.3083
 2152SOL    HW3 8607   3.982   1.203   3.437 -0.5801 -1.6754 -0.0991
 2152SOL    MW4 8608   4.065   1.185   3.420 -0.1529  0.0962  0.0479
 2153SOL     OW 8609   4.282   1.305   3.548  0.2371 -0.0700 -0.3481
 2153SOL    HW2 8610   4.295   1.389   3.506  0.8561 -0.5859 -1.1892
 2153SOL    HW3 8611   4.354   1.250   3.516  0.5627 -0.5460  1.1546
 2153SOL    MW4 8612   4.293   1.309   3.539  0.3617 -0.2009 -0.2608
 2154SOL     OW 8613   4.321   1.544   3.401  0.2580 -0.2961  0.1927
 2154SOL    HW2 8614   4.245   1.599   3.419 -0.2651 -0.9906  0.1206
 2154SOL    HW3 8615   4.329   1.544   3.306 -0.5292 -1.4012  0.1250
 2154SOL    MW4 8616   4.312   1.552   3.391  0.0851 -0.5335  0.1743
 2155SOL     OW 8617   4.095   1.653   3.516  0.0491 -0.5513 -0.6575
 2155SOL    HW2 8618   4.081   1.649   3.611 -1.3614 -1.1147 -0.8786
 2155SOL    HW3 8619   4.106   1.746   3.497 -0.7654 -0.3298 -0.0855
 2155SOL    MW4 8620   4.094   1.664   3.526 -0.2445 -0.5964 -0.6112
 2156SOL     OW 8621   4.090   1.931   3.465 -0.0358 -0.3798  0.1457
 2156SOL    HW2 8622   4.163   1.989   3.486 -0.7508  0.3110  0.7221
 2156SOL    HW3 8623   4.091   1.926   3.369 -0.4488  1.1851  0.0554
 2156SOL    MW4 8624   4.100   1.938   3.455 -0.1846 -0.0822  0.2098
 2157SOL     OW 8625   4.335   2.055   3.541  0.2728  0.3667 -0.4759
 2157SOL    HW2 8626   4.312   2.123   3.477 -1.2290 -0.5965 -0.9962
 2157SOL    HW3 8627   4.392   1.995   3.492 -0.5162 -0.1324 -0.7942
 2157SOL    MW4 8628   4.340   2.056   3.526 -0.0294  0.1738 -0.5866
 2158SOL     OW 8629   4.306   2.282   3.374  0.2017 -0.0669 -0.2738
 2158SOL    HW2 8630   4.237   2.328   3.422  0.0228  0.7071 -1.2423
 2158SOL    HW3 8631   4.283   2.294   3.282  0.6679 -1.3264 -0.5603
 2158SOL    MW4 8632   4.294   2.290   3.368  0.2396 -0.1310 -0.4394
 2159SOL     OW 8633   4.083   2.398   3.488 -0.2923 -0.3906 -0.0743
 2159SOL    HW2 8634   4.064   2.406   3.582  0.0554  0.8574 -0.1001
 2159SOL    HW3 8635   4.071   2.486   3.454  0.2698 -0.6983 -1.0773
 2159SOL    MW4 8636   4.079   2.411   3.496 -0.1723 -0.2666 -0.2100
 2160SOL     OW 8637   4.060   2.654   3.397  0.0570 -0.1802  0.1227
 2160SOL    HW2 8638   4.134   2.709   3.422 -0.6010  0.6182  0.3149
 2160SOL    HW3 8639   3.983   2.702   3.426 -0.5296 -1.1792  0.2513
 2160SOL    MW4 8640   4.060   2.667   3.404 -0.1072 -0.2067  0.1651
 2161SOL     OW 8641   4.283   2.812   3.484  0.5918 -0.2020  0.5916
 2161SOL    HW2 8642   4.279   2.796   3.578 -0.7643 -0.2904  0.5393
 2161SOL    HW3 8643   4.363   2.768   3.455  0.4731 -1.0672  1.5440
 2161SOL    MW4 8644   4.293   2.804   3.493  0.3972 -0.3278  0.7103
 2162SOL     OW 8645   4.300   3.077   3.424  0.0454  0.1348 -0.2196
 2162SOL    HW2 8646   4.316   2.987   3.450 -3.7314 -0.5950 -0.0671
 2162SOL    HW3 8647   4.288   3.074   3.329 -0.0309  0.4653 -0.2226
 2162SOL    MW4 8648   4.300   3.065   3.415 -0.4630  0.0821 -0.1998
 2163SOL     OW 8649   4.045   3.196   3.501 -0.3282 -0.0248  0.2873
 2163SOL    HW2 8650   4.069   3.284   3.473  0.0749 -0.7163 -1.6323
 2163SOL    HW3 8651   4.123   3.143   3.481 -0.5654 -0.8145  1.4189
 2163SOL    MW4 8652   4.058   3.201   3.495 -0.3063 -0.2202  0.1833
 2164SOL     OW 8653   4.059   3.451   3.399 -0.3645  0.1171 -0.4684
 2164SOL    HW2 8654   4.134   3.500   3.433  0.1292 -0.7593 -0.2765
 2164SOL    HW3 8655   3.983   3.501   3.427  0.1342  0.7808 -0.2858
 2164SOL    MW4 8656   4.059   3.464   3.408 -0.2336  0.0891 -0.4190
 2165SOL     OW 8657   4.255   3.589   3.512 -0.3158  0.1846  0.1326
 2165SOL    HW2 8658   4.267   3.595   3.606  0.4460  0.3006  0.0368
 2165SOL    HW3 8659   4.263   3.679   3.481  0.3945  0.0418 -0.1368
 2165SOL    MW4 8660   4.258   3.602   3.520 -0.1215  0.1810  0.0844
 2166SOL     OW 8661   4.294   3.840   3.408 -0.0099 -0.0965  0.1302
 2166SOL    HW2 8662   4.361   3.893   3.450  0.0813 -0.5793  0.5857
 2166SOL    HW3 8663   4.308   3.854   3.314 -1.4299  2.5121  0.2589
 2166SOL    MW4 8664   4.304   3.849   3.401 -0.1852  0.1840  0.2073
 2167SOL     OW 8665   4.044   3.950   3.504  0.1221  0.0895 -0.0543
 2167SOL    HW2 8666   4.116   3.913   3.453  0.9196  0.3430  0.8655
 2167SOL    HW3 8667   3.966   3.905   3.472  0.6118  0.1843 -1.4292
 2167SOL    MW4 8668   4.043   3.939   3.493  0.2919  0.1355 -0.1143
 2168SOL     OW 8669   4.035   4.231   3.405  0.3524 -0.2012  0.7405
 2168SOL    HW2 8670   4.028   4.138   3.428 -0.6391 -0.2417  0.2719
 2168SOL    HW3 8671   3.965   4.273   3.455 -1.1829 -0.1416 -1.3985
 2168SOL    MW4 8672   4.025   4.224   3.415  0.0190 -0.1987  0.3965
 2169SOL     OW 8673   4.270   4.347   3.498  0.0748  0.4143  0.2322
 2169SOL    HW2 8674   4.257   4.346   3.593  0.0159 -1.2255  0.2193
 2169SOL    HW3 8675   4.185   4.320   3.462  0.7449 -1.1936 -0.1861
 2169SOL    MW4 8676   4.257   4.343   3.506  0.1555 -0.0142  0.1753
 2170SOL     OW 8677   0.234   4.636   3.893  0.3215 -0.5532  0.0321
 2170SOL    HW2 8678   0.242   4.616   3.986  0.1046  0.3345  0.2383
 2170SOL    HW3 8679   0.149   4.678   3.884  0.4429 -0.4212 -0.5293
 2170SOL    MW4 8680   0.224   4.639   3.904  0.3089 -0.4187 -0.0147
 2171SOL     OW 8681   4.475   0.084   3.823 -0.2010  0.5584  0.1761
 2171SOL    HW2 8682   4.464   0.175   3.848 -0.7556  0.6273 -0.2985
 2171SOL    HW3 8683   4.473   0.085   3.727 -0.0484  0.0728  0.1674
 2171SOL    MW4 8684   4.473   0.096   3.814 -0.2541  0.5034  0.1123
 2172SOL     OW 8685   4.482   0.357   3.889 -0.1765  0.2801 -0.2592
 2172SOL    HW2 8686   4.418   0.426   3.873 -0.1666  0.0512 -1.3304
 2172SOL    HW3 8687   4.567   0.398   3.869 -0.0222  0.4777  0.8064
 2172SOL    MW4 8688   4.485   0.372   3.884 -0.1548  0.2760 -0.2599
 2173SOL     OW 8689   0.247   0.456   3.821 -0.2830  0.2855  0.1855
 2173SOL    HW2 8690   0.257   0.536   3.872  0.9544  0.1605  0.1586
 2173SOL    HW3 8691   0.239   0.486   3.731 -0.5286  0.4069  0.2457
 2173SOL    MW4 8692   0.247   0.470   3.816 -0.1522  0.2850  0.1899
 2174SOL     OW 8693   0.223   0.719   3.922  0.4374 -0.2072  0.2017
 2174SOL    HW2 8694   0.234   0.749   4.013  1.1272  1.6146 -0.4588
 2174SOL    HW3 8695   0.138   0.754   3.895  0.4099 -0.4171  0.0107
 2174SOL    MW4 8696   0.213   0.727   3.931  0.5248  0.0055  0.0894
 2175SOL     OW 8697   0.009   0.831   3.789  0.9501  0.2002  0.4557
 2175SOL    HW2 8698  -0.081   0.812   3.813  1.7322 -0.9141  2.6839
 2175SOL    HW3 8699   0.016   0.926   3.795 -0.3452  0.3969 -0.8409
 2175SOL    MW4 8700  -0.002   0.841   3.793  0.8824  0.0791  0.5786
 2176SOL     OW 8701   4.476   1.108   3.847 -0.3643  0.1652 -0.2003
 2176SOL    HW2 8702   4.389   1.148   3.845 -0.4846 -0.0437  0.6194
 2176SOL    HW3 8703   4.535   1.178   3.818 -0.7845  0.3641 -0.5761
 2176SOL    MW4 8704   4.472   1.122   3.843 -0.4356  0.1638 -0.1418
 2177SOL     OW 8705   0.202   1.280   3.788 -0.3733  1.0242 -0.3494
 2177SOL    HW2 8706   0.226   1.356   3.840  0.4331  1.2598 -1.0457
 2177SOL    HW3 8707   0.208   1.311   3.697  0.7242 -0.0815 -0.6615
 2177SOL    MW4 8708   0.206   1.294   3.783 -0.1221  0.9094 -0.4824
 2178SOL     OW 8709   0.251   1.502   3.942  0.2174  0.1280 -0.2935
 2178SOL    HW2 8710   0.284   1.535   4.025 -0.8956  1.1897 -0.2580
 2178SOL    HW3 8711   0.166   1.545   3.931 -0.0979 -0.7647 -1.4964
 2178SOL    MW4 8712   0.244   1.512   3.952  0.0289  0.1503 -0.4475
 2179SOL     OW 8713   0.014   1.655   3.819 -0.6268 -0.4307  0.6017
 2179SOL    HW2 8714  -0.004   1.743   3.851  1.1446 -0.7278  2.5393
 2179SOL    HW3 8715   0.017   1.664   3.724 -0.3312  1.6159  0.7842
 2179SOL    MW4 8716   0.012   1.667   3.811 -0.3541 -0.1999  0.8814
 2180SOL     OW 8717   0.028   1.927   3.887  0.0894 -0.5010  0.2647
 2180SOL    HW2 8718   0.017   1.937   3.982 -1.4999 -1.2330  0.1723
 2180SOL    HW3 8719  -0.045   1.975   3.849  1.7033  1.2779 -0.6729
 2180SOL    MW4 8720   0.017   1.934   3.895  0.0926 -0.3629  0.1288
 2181SOL     OW 8721   0.236   2.091   3.762  0.1439 -0.1001 -0.1503
 2181SOL    HW2 8722   0.230   2.182   3.792 -2.0350  0.6435 -2.6949
 2181SOL    HW3 8723   0.180   2.042   3.823 -0.2234  0.5802  0.0623
 2181SOL    MW4 8724   0.228   2.097   3.774 -0.1920  0.0878 -0.4580
 2182SOL     OW 8725   0.233   2.352   3.840  0.3538 -0.0823 -0.2670
 2182SOL    HW2 8726   0.250   2.365   3.933 -0.0410 -0.5350 -0.1274
 2182SOL    HW3 8727   0.148   2.393   3.825 -0.7955 -2.2473  0.1318
 2182SOL    MW4 8728   0.224   2.359   3.850  0.1500 -0.4277 -0.1959
 2183SOL     OW 8729   4.481   2.479   3.768  0.5742  0.2610  0.4600
 2183SOL    HW2 8730   4.413   2.430   3.814 -1.6110 -1.0886 -3.8710
 2183SOL    HW3 8731   4.476   2.568   3.803 -2.4446 -0.1942  1.2762
 2183SOL    MW4 8732   4.471   2.484   3.779 -0.1124  0.0229 -0.0038
 2184SOL     OW 8733   0.018   2.739   3.891  0.1175 -0.0655 -0.1321
 2184SOL    HW2 8734   0.033   2.724   3.985  0.1684  0.9278  0.0315
 2184SOL    HW3 8735   0.104   2.768   3.859  0.5005 -1.8734 -0.8140
 2184SOL    MW4 8736   0.032   2.741   3.899  0.1747 -0.1730 -0.2004
 2185SOL     OW 8737   0.277   2.827   3.812  0.1452  0.0890  0.6550
 2185SOL    HW2 8738   0.344   2.770   3.849 -0.5191 -0.5074  0.9603
 2185SOL    HW3 8739   0.292   2.823   3.717  1.7811  1.5437  0.8302
 2185SOL    MW4 8740   0.288   2.819   3.804  0.2734  0.2022  0.7184
 2186SOL     OW 8741   0.207   3.086   3.860 -0.3974  0.2060  0.3322
 2186SOL    HW2 8742   0.224   3.097   3.954  1.1780  1.0131 -0.0248
 2186SOL    HW3 8743   0.220   2.993   3.844 -2.4826 -0.2763  1.2385
 2186SOL    MW4 8744   0.211   3.075   3.870 -0.4647  0.2489  0.4047
 2187SOL     OW 8745   4.463   3.228   3.782 -0.2089  0.1540  0.1234
 2187SOL    HW2 8746   4.550   3.203   3.814 -0.5839 -1.2644  0.0629
 2187SOL    HW3 8747   4.474   3.235   3.687  0.3784  2.2159  0.3300
 2187SOL    MW4 8748   4.476   3.225   3.774 -0.1809  0.2389  0.1427
 2188SOL     OW 8749   0.003   3.514   3.894  0.2514  0.1946 -0.1567
 2188SOL    HW2 8750   0.073   3.540   3.834  1.1955  1.4176  1.4455
 2188SOL    HW3 8751  -0.017   3.424   3.868 -0.1122  1.0254 -2.9922
 2188SOL    MW4 8752   0.010   3.505   3.883  0.3280  0.4656 -0.3194
 2189SOL     OW 8753   0.204   3.611   3.726  0.6083  0.7024  0.5561
 2189SOL    HW2 8754   0.272   3.551   3.758  0.6057  0.2059 -0.3677
 2189SOL    HW3 8755   0.227   3.696   3.765  1.8226  0.5628  0.1656
 2189SOL    MW4 8756   0.216   3.614   3.735  0.7682  0.6185  0.3827
 2190SOL     OW 8757   0.212   3.869   3.845 -0.2914 -0.0427 -0.2271
 2190SOL    HW2 8758   0.209   3.857   3.940  0.8846 -1.2150 -0.3087
 2190SOL    HW3 8759   0.286   3.928   3.830 -1.1583  1.0279 -0.3541
 2190SOL    MW4 8760   0.221   3.875   3.855 -0.2506 -0.0561 -0.2546
 2191SOL     OW 8761   4.455   3.975   3.775  0.0535 -0.4686 -0.1408
 2191SOL    HW2 8762   4.378   3.948   3.825 -0.8296  0.5093 -0.9570
 2191SOL    HW3 8763   4.525   3.916   3.806 -0.9801 -1.2993  0.6745
 2191SOL    MW4 8764   4.454   3.963   3.786 -0.1994 -0.4492 -0.1409
 2192SOL     OW 8765   0.031   4.234   3.864 -0.2187  0.5716  0.1042
 2192SOL    HW2 8766   0.108   4.279   3.829 -1.4410  0.8163 -2.3717
 2192SOL    HW3 8767   0.025   4.152   3.815 -2.0342  0.9749 -0.4097
 2192SOL    MW4 8768   0.040   4.229   3.853 -0.6195  0.6571 -0.2903
 2193SOL     OW 8769   0.250   4.390   3.754  0.0389 -0.0917 -0.0642
 2193SOL    HW2 8770   0.329   4.356   3.796 -0.6565 -0.0683  1.3161
 2193SOL    HW3 8771   0.244   4.481   3.784 -0.7360 -0.2192  0.1877
 2193SOL    MW4 8772   0.260   4.398   3.764 -0.1551 -0.1054  0.1512
 2194SOL     OW 8773   0.704   4.643   3.908 -0.7437  0.4723  0.5969
 2194SOL    HW2 8774   0.717   4.558   3.866  0.0179  0.3282  1.1181
 2194SOL    HW3 8775   0.614   4.668   3.885 -0.2370  0.5471 -1.3865
 2194SOL    MW4 8776   0.693   4.635   3.899 -0.5763  0.4632  0.4040
 2195SOL     OW 8777   0.447   0.103   3.799 -0.3297  0.0192 -0.1285
 2195SOL    HW2 8778   0.459   0.184   3.848 -0.3469 -0.8369  1.3370
 2195SOL    HW3 8779   0.364   0.067   3.832 -0.7329 -0.1963 -1.3453
 2195SOL    MW4 8780   0.437   0.109   3.810 -0.3852 -0.1222 -0.0957
 2196SOL     OW 8781   0.485   0.340   3.912  0.1824  0.5102 -0.2431
 2196SOL    HW2 8782   0.549   0.397   3.869  0.6906  0.1369  0.0212
 2196SOL    HW3 8783   0.400   0.372   3.881  0.5219  0.5607 -1.1337
 2196SOL    MW4 8784   0.482   0.352   3.902  0.2942  0.4676 -0.3257
 2197SOL     OW 8785   0.660   0.487   3.760  0.6829 -0.0992  0.4797
 2197SOL    HW2 8786   0.732   0.459   3.816  0.1734 -0.6062  0.8911
 2197SOL    HW3 8787   0.642   0.578   3.787  0.2160 -0.4504  1.3901
 2197SOL    MW4 8788   0.667   0.495   3.771  0.5541 -0.2124  0.6541
 2198SOL     OW 8789   0.619   0.753   3.831  0.6219 -0.5919  0.1270
 2198SOL    HW2 8790   0.689   0.782   3.772  1.7783  0.7556  2.0842
 2198SOL    HW3 8791   0.540   0.791   3.794  1.1115 -0.9752 -1.3550
 2198SOL    MW4 8792   0.618   0.762   3.818  0.8390 -0.4647  0.1897
 2199SOL     OW 8793   0.396   0.880   3.759  0.2968 -0.3909  0.2982
 2199SOL    HW2 8794   0.401   0.968   3.795  1.0355  0.0585 -0.8575
 2199SOL    HW3 8795   0.332   0.835   3.814 -0.2497  0.9276  0.7705
 2199SOL    MW4 8796   0.388   0.886   3.771  0.3222 -0.1577  0.2081
 2200SOL     OW 8797   0.427   1.126   3.878 -0.3768  0.5543 -0.2394
 2200SOL    HW2 8798   0.446   1.146   3.969 -1.4261 -1.3277  0.4236
 2200SOL    HW3 8799   0.341   1.165   3.862  0.7146  2.6670 -1.0476
 2200SOL    MW4 8800   0.418   1.134   3.888 -0.3712  0.5848 -0.2585
 2201SOL     OW 8801   0.640   1.296   3.793  0.5945 -0.0947 -0.3550
 2201SOL    HW2 8802   0.580   1.227   3.821 -0.3495  0.4058 -1.1234
 2201SOL    HW3 8803   0.641   1.289   3.697  1.2159  0.3681 -0.3860
 2201SOL    MW4 8804   0.632   1.286   3.784  0.5519  0.0324 -0.4605
 2202SOL     OW 8805   0.688   1.553   3.886  0.0081  0.3953 -0.7895
 2202SOL    HW2 8806   0.773   1.585   3.855  0.0256 -0.1406 -1.3168
 2202SOL    HW3 8807   0.684   1.463   3.854 -0.2460  0.0282  0.2455
 2202SOL    MW4 8808   0.699   1.545   3.878 -0.0231  0.2761 -0.7225
 2203SOL     OW 8809   0.436   1.647   3.784 -0.1753  0.5928  0.0805
 2203SOL    HW2 8810   0.523   1.624   3.817 -0.3079 -0.7542 -0.4943
 2203SOL    HW3 8811   0.375   1.591   3.832 -0.6589  0.9813 -0.0696
 2203SOL    MW4 8812   0.439   1.637   3.795 -0.2566  0.4663 -0.0152
 2204SOL     OW 8813   0.440   1.907   3.840  0.1192 -0.0012 -0.3121
 2204SOL    HW2 8814   0.422   1.821   3.802 -1.3979 -0.0381  0.4527
 2204SOL    HW3 8815   0.369   1.962   3.809  0.0684  0.5142  0.7139
 2204SOL    MW4 8816   0.428   1.903   3.831 -0.0877  0.0619 -0.0758
 2205SOL     OW 8817   0.702   2.017   3.770  0.2093 -0.2331  0.1763
 2205SOL    HW2 8818   0.688   2.112   3.770  1.0921 -0.0963  0.4308
 2205SOL    HW3 8819   0.619   1.980   3.799 -0.2427  0.4487 -0.2325
 2205SOL    MW4 8820   0.689   2.025   3.774  0.2661 -0.1251  0.1560
 2206SOL     OW 8821   0.655   2.317   3.829 -0.0750  0.1417  0.1544
 2206SOL    HW2 8822   0.741   2.348   3.802 -0.3331 -0.1453 -1.0365
 2206SOL    HW3 8823   0.594   2.381   3.794 -0.3496  0.2984  0.9212
 2206SOL    MW4 8824   0.659   2.329   3.821 -0.1453  0.1245  0.0985
 2207SOL     OW 8825   0.458   2.474   3.713  0.4043  0.0999 -0.0900
 2207SOL    HW2 8826   0.376   2.431   3.739  0.8723  0.2284  1.7147
 2207SOL    HW3 8827   0.469   2.451   3.621 -0.6919 -1.4868  0.1487
 2207SOL    MW4 8828   0.449   2.465   3.704  0.3214 -0.0925  0.1796
 2208SOL     OW 8829   0.488   2.680   3.888 -0.1008  0.3205  0.0084
 2208SOL    HW2 8830   0.556   2.741   3.860 -0.2902  0.4583 -0.1478
 2208SOL    HW3 8831   0.491   2.609   3.824  0.6763 -0.2378  0.6556
 2208SOL    MW4 8832   0.497   2.679   3.876 -0.0233  0.2650  0.0732
 2209SOL     OW 8833   0.684   2.835   3.757 -0.4142 -0.3842 -0.0346
 2209SOL    HW2 8834   0.765   2.787   3.775  0.6553  1.3864 -0.0371
 2209SOL    HW3 8835   0.668   2.820   3.664  0.4353  0.0282 -0.2538
 2209SOL    MW4 8836   0.693   2.827   3.747 -0.1611 -0.0962 -0.0639
 2210SOL     OW 8837   0.650   3.090   3.807 -0.1834 -0.5247 -0.6072
 2210SOL    HW2 8838   0.637   3.082   3.902 -2.6314  0.6757 -0.8175
 2210SOL    HW3 8839   0.673   3.001   3.779 -0.4478 -1.1094  0.9680
 2210SOL    MW4 8840   0.651   3.077   3.816 -0.5413 -0.4435 -0.4271
 2211SOL     OW 8841   0.413   3.217   3.733 -0.0759  0.1120 -0.4078
 2211SOL    HW2 8842   0.496   3.176   3.754  0.3546  1.7990  1.3376
 2211SOL    HW3 8843   0.348   3.169   3.785  0.2808  0.9092  0.7966
 2211SOL    MW4 8844   0.415   3.206   3.742  0.0279  0.4398 -0.0186
 2212SOL     OW 8845   0.396   3.463   3.841 -0.0865 -0.1700  0.1758
 2212SOL    HW2 8846   0.481   3.502   3.819 -0.5722  0.2949 -0.8904
 2212SOL    HW3 8847   0.406   3.371   3.817 -0.2125  0.0892 -0.8937
 2212SOL    MW4 8848   0.409   3.456   3.835 -0.1672 -0.0744 -0.1060
 2213SOL     OW 8849   0.608   3.622   3.775 -0.4131  0.0159  0.7195
 2213SOL    HW2 8850   0.606   3.705   3.822  1.2817 -0.0747  0.9764
 2213SOL    HW3 8851   0.614   3.647   3.682 -1.9507  0.1825  0.6576
 2213SOL    MW4 8852   0.609   3.636   3.769 -0.3923  0.0259  0.7452
 2214SOL     OW 8853   0.447   4.047   3.775  0.3615 -0.2635  0.1011
 2214SOL    HW2 8854   0.510   3.993   3.821  1.0391  1.1493  0.8585
 2214SOL    HW3 8855   0.453   4.019   3.684  2.3446  0.0880  0.1066
 2214SOL    MW4 8856   0.456   4.036   3.769  0.7126 -0.0307  0.2017
 2215SOL     OW 8857   0.401   3.467   4.121  0.4344 -0.0476 -0.5276
 2215SOL    HW2 8858   0.399   3.474   4.025 -1.8328 -0.9004 -0.5760
 2215SOL    HW3 8859   0.415   3.374   4.138 -0.5560 -0.1178 -0.0520
 2215SOL    MW4 8860   0.403   3.456   4.111  0.0046 -0.1694 -0.4712
 2216SOL     OW 8861   0.466   4.283   3.890 -0.5159 -0.1824 -0.1475
 2216SOL    HW2 8862   0.549   4.319   3.860 -1.0554  0.4260 -0.9458
 2216SOL    HW3 8863   0.458   4.199   3.845  0.9344 -1.5329  2.0268
 2216SOL    MW4 8864   0.476   4.276   3.880 -0.3957 -0.2803  0.0340
 2217SOL     OW 8865   0.705   4.387   3.781  0.8326  0.1363  0.1493
 2217SOL    HW2 8866   0.782   4.339   3.812  0.5054  0.0573  0.8465
 2217SOL    HW3 8867   0.695   4.360   3.689 -0.2317 -2.3425  0.9432
 2217SOL    MW4 8868   0.713   4.377   3.773  0.6490 -0.2012  0.3460
 2218SOL     OW 8869   1.104   0.001   3.876 -0.0281 -0.5636  0.3508
 2218SOL    HW2 8870   1.180   0.041   3.835 -1.5408 -0.7026 -2.7867
 2218SOL    HW3 8871   1.105  -0.090   3.845 -1.8779 -0.3486 -0.4168
 2218SOL    MW4 8872   1.114  -0.006   3.866 -0.4717 -0.5536 -0.1644
 2219SOL     OW 8873   0.899   0.166   3.789  0.0987 -0.4252  0.3084
 2219SOL    HW2 8874   0.966   0.104   3.816 -0.3950 -0.7903  0.7019
 2219SOL    HW3 8875   0.816   0.122   3.809 -0.2832 -0.6127 -1.5440
 2219SOL    MW4 8876   0.897   0.152   3.795 -0.0168 -0.4981  0.1159
 2220SOL     OW 8877   0.885   0.410   3.903 -0.5362  0.3998 -0.1078
 2220SOL    HW2 8878   0.889   0.415   3.998 -0.0329  0.6729 -0.1418
 2220SOL    HW3 8879   0.907   0.319   3.882  0.7745  0.6953 -0.0372
 2220SOL    MW4 8880   0.888   0.399   3.913 -0.2969  0.4748 -0.1029
 2221SOL     OW 8881   1.121   0.489   3.745 -0.1870 -0.6281  0.2907
 2221SOL    HW2 8882   1.188   0.437   3.788  0.3557 -0.2226 -0.0532
 2221SOL    HW3 8883   1.039   0.464   3.788  0.1301 -1.4285  0.4239
 2221SOL    MW4 8884   1.119   0.479   3.757 -0.0735 -0.6802  0.2629
 2222SOL     OW 8885   1.097   0.764   3.798  0.8596  0.4545  0.0681
 2222SOL    HW2 8886   1.092   0.743   3.892  0.5416  0.7109  0.1099
 2222SOL    HW3 8887   1.114   0.680   3.756 -0.2386  0.1277  0.2516
 2222SOL    MW4 8888   1.099   0.750   3.805  0.6727  0.4452  0.0978
 2223SOL     OW 8889   0.846   0.861   3.731 -0.3518  0.3549 -0.5099
 2223SOL    HW2 8890   0.934   0.840   3.761 -0.1137  1.4593 -0.4494
 2223SOL    HW3 8891   0.854   0.870   3.636 -0.8763 -1.9382 -0.8169
 2223SOL    MW4 8892   0.859   0.859   3.722 -0.3896  0.1980 -0.5424
 2224SOL     OW 8893   0.866   1.126   3.827 -0.3144 -0.2868  0.4519
 2224SOL    HW2 8894   0.793   1.179   3.796 -1.4506 -1.7685  0.5703
 2224SOL    HW3 8895   0.858   1.044   3.780  1.5382 -0.3197  0.1514
 2224SOL    MW4 8896   0.855   1.122   3.817 -0.2199 -0.4866  0.4279
 2225SOL     OW 8897   1.093   1.248   3.731  0.0848  0.2328 -0.3004
 2225SOL    HW2 8898   1.094   1.330   3.779  0.3513 -0.1862  0.4135
 2225SOL    HW3 8899   1.010   1.207   3.754  0.8636 -0.6657  1.0116
 2225SOL    MW4 8900   1.082   1.253   3.740  0.2227  0.0590 -0.0331
 2226SOL     OW 8901   1.154   1.485   3.902  0.2523  0.3283 -0.1501
 2226SOL    HW2 8902   1.138   1.504   3.994 -0.1595 -1.7230  0.2323
 2226SOL    HW3 8903   1.228   1.540   3.878  0.1394  1.1382  1.3152
 2226SOL    MW4 8904   1.161   1.495   3.911  0.1831  0.1645  0.0937
 2227SOL     OW 8905   0.938   1.625   3.808  0.1229 -0.4658  0.1562
 2227SOL    HW2 8906   1.019   1.584   3.839 -0.2617 -1.0796  0.3639
 2227SOL    HW3 8907   0.956   1.648   3.717  0.2744 -1.2888 -0.0245
 2227SOL    MW4 8908   0.951   1.622   3.800  0.0921 -0.6554  0.1598
 2228SOL     OW 8909   0.934   1.896   3.886 -0.3235 -0.3575  0.0903
 2228SOL    HW2 8910   0.924   1.805   3.859 -0.9426 -0.0038 -0.9218
 2228SOL    HW3 8911   0.856   1.939   3.852 -0.0505  0.5451  0.5933
 2228SOL    MW4 8912   0.922   1.890   3.878 -0.3692 -0.1918  0.0231
 2229SOL     OW 8913   1.142   2.038   3.790 -0.0056 -0.0424  0.4645
 2229SOL    HW2 8914   1.070   1.979   3.812  0.6934 -0.6083  1.2457
 2229SOL    HW3 8915   1.145   2.037   3.694  0.0818 -1.3678  0.4675
 2229SOL    MW4 8916   1.133   2.030   3.780  0.0982 -0.2919  0.5680
 2230SOL     OW 8917   1.145   2.308   3.854 -0.2133  0.1712  0.0498
 2230SOL    HW2 8918   1.149   2.303   3.949  1.0663 -1.2404 -0.0501
 2230SOL    HW3 8919   1.143   2.216   3.825  1.8945  0.5249 -1.3423
 2230SOL    MW4 8920   1.146   2.295   3.862  0.2336  0.0316 -0.1470
 2231SOL     OW 8921   0.899   2.406   3.778 -0.2081 -0.1328 -0.5541
 2231SOL    HW2 8922   0.889   2.501   3.785 -0.0053 -0.0290 -1.7365
 2231SOL    HW3 8923   0.982   2.388   3.823 -0.0254  0.2957 -0.7115
 2231SOL    MW4 8924   0.909   2.416   3.785 -0.1572 -0.0626 -0.7309
 2232SOL     OW 8925   0.921   2.680   3.817  0.3384  0.3068 -0.3728
 2232SOL    HW2 8926   0.923   2.666   3.912  1.6475 -3.5130 -0.8909
 2232SOL    HW3 8927   1.003   2.726   3.798  0.5883  0.1101  0.2130
 2232SOL    MW4 8928   0.932   2.684   3.827  0.5441 -0.2231 -0.3639
 2233SOL     OW 8929   1.129   2.829   3.725  0.2045 -0.3105  0.7560
 2233SOL    HW2 8930   1.210   2.791   3.759  2.3479  1.9339 -1.6232
 2233SOL    HW3 8931   1.106   2.898   3.787  0.8542 -0.0849  0.7476
 2233SOL    MW4 8932   1.137   2.833   3.738  0.5730  0.0154  0.4410
 2234SOL     OW 8933   1.096   3.055   3.871  0.0254  0.2546  0.3746
 2234SOL    HW2 8934   1.174   3.094   3.832  0.5003  1.4114  2.3980
 2234SOL    HW3 8935   1.023   3.100   3.829  0.4537 -0.4957 -1.1859
 2234SOL    MW4 8936   1.096   3.067   3.861  0.1446  0.3082  0.4357
 2235SOL     OW 8937   0.886   3.231   3.804 -0.8228 -0.2324  0.2042
 2235SOL    HW2 8938   0.804   3.181   3.800 -2.0893  1.7814  0.4717
 2235SOL    HW3 8939   0.909   3.246   3.713 -0.1303 -1.7849  0.1150
 2235SOL    MW4 8940   0.878   3.226   3.792 -0.8985 -0.1716  0.2278
 2236SOL     OW 8941   0.872   3.502   3.871  0.1226 -0.1805  0.2593
 2236SOL    HW2 8942   0.873   3.412   3.840  1.0228  0.1281 -0.6572
 2236SOL    HW3 8943   0.795   3.541   3.829 -0.1962 -0.4895  0.5577
 2236SOL    MW4 8944   0.862   3.496   3.861  0.1993 -0.1806  0.1777
 2237SOL     OW 8945   1.095   3.624   3.752 -0.0507 -0.0679 -0.3692
 2237SOL    HW2 8946   1.101   3.705   3.803 -0.8157  0.1691 -0.6500
 2237SOL    HW3 8947   1.020   3.577   3.789  1.5801 -1.5979  1.1259
 2237SOL    MW4 8948   1.086   3.628   3.764  0.0636 -0.2385 -0.2090
 2238SOL     OW 8949   1.103   3.883   3.865  0.1081 -0.0899 -0.3226
 2238SOL    HW2 8950   1.113   3.881   3.960 -0.7680 -0.0031 -0.2262
 2238SOL    HW3 8951   1.180   3.932   3.834 -0.6104  1.5826  0.4816
 2238SOL    MW4 8952   1.115   3.890   3.873 -0.1023  0.1422 -0.2038
 2239SOL     OW 8953   0.851   3.981   3.802  0.0174 -0.2468  0.1998
 2239SOL    HW2 8954   0.936   3.947   3.827 -0.1452 -0.1258  0.9581
 2239SOL    HW3 8955   0.857   3.999   3.708  0.8829 -0.0588  0.2935
 2239SOL    MW4 8956   0.863   3.979   3.793  0.1101 -0.2061  0.3122
 2240SOL     OW 8957   0.926   4.254   3.893  0.3047 -0.2493 -0.3118
 2240SOL    HW2 8958   0.922   4.268   3.988  0.7244  0.8337 -0.4481
 2240SOL    HW3 8959   0.900   4.163   3.881 -0.3842 -0.2091  0.7946
 2240SOL    MW4 8960   0.922   4.244   3.904  0.2692 -0.1011 -0.1838
 2241SOL     OW 8961   1.124   4.418   3.766 -0.3655 -0.1821 -0.0327
 2241SOL    HW2 8962   1.058   4.365   3.808  0.1578  0.1257  1.1923
 2241SOL    HW3 8963   1.116   4.398   3.672 -2.7953  0.5625 -0.0036
 2241SOL    MW4 8964   1.114   4.408   3.759 -0.6171 -0.0433  0.1327
 2242SOL     OW 8965   1.610   4.624   3.861  0.2382 -0.1034  0.0414
 2242SOL    HW2 8966   1.587   4.627   3.953  1.5389 -1.2364  0.4118
 2242SOL    HW3 8967   1.585   4.536   3.832  0.2384  0.0939 -0.5719
 2242SOL    MW4 8968   1.603   4.613   3.869  0.4098 -0.2268  0.0094
 2243SOL     OW 8969   1.371   0.073   3.759  0.2440 -0.0281  0.1131
 2243SOL    HW2 8970   1.373   0.166   3.781  1.6535  0.4100 -1.7269
 2243SOL    HW3 8971   1.453   0.039   3.795 -0.1819 -0.5257  0.6151
 2243SOL    MW4 8972   1.382   0.081   3.767  0.3738 -0.0360 -0.0635
 2244SOL     OW 8973   1.331   0.344   3.844 -0.4370  0.0944 -0.6036
 2244SOL    HW2 8974   1.332   0.343   3.940 -1.2236  0.8745 -0.5909
 2244SOL    HW3 8975   1.412   0.390   3.820 -0.3443  0.0831 -0.3194
 2244SOL    MW4 8976   1.342   0.350   3.854 -0.5286  0.1958 -0.5645
 2245SOL     OW 8977   1.572   0.480   3.774  0.0349 -0.9345  0.3410
 2245SOL    HW2 8978   1.656   0.438   3.792  0.0399 -0.9810  0.2066
 2245SOL    HW3 8979   1.579   0.565   3.816  0.2004 -0.8851  0.2162
 2245SOL    MW4 8980   1.584   0.485   3.782  0.0574 -0.9341  0.3068
 2246SOL     OW 8981   1.569   0.744   3.866  0.1207  0.1244 -0.3819
 2246SOL    HW2 8982   1.650   0.788   3.839 -0.6620  1.3346 -0.7851
 2246SOL    HW3 8983   1.499   0.804   3.841 -0.7746  0.2725  2.3488
 2246SOL    MW4 8984   1.571   0.757   3.859 -0.1007  0.3036 -0.0748
 2247SOL     OW 8985   1.360   0.916   3.773  0.3137 -0.3055 -0.0165
 2247SOL    HW2 8986   1.335   1.007   3.790 -1.1057 -0.9987  1.8132
 2247SOL    HW3 8987   1.282   0.865   3.795  1.6590 -2.1137  0.7131
 2247SOL    MW4 8988   1.346   0.921   3.778  0.3039 -0.6355  0.3212
 2248SOL     OW 8989   1.318   1.165   3.871 -0.0111 -0.1806 -0.0241
 2248SOL    HW2 8990   1.401   1.183   3.827  0.4935  1.1997  1.4457
 2248SOL    HW3 8991   1.251   1.181   3.804  0.8660 -0.6879 -1.0388
 2248SOL    MW4 8992   1.320   1.170   3.856  0.1712 -0.0654  0.0360
 2249SOL     OW 8993   1.561   1.247   3.770 -0.2943 -0.3020  0.6200
 2249SOL    HW2 8994   1.635   1.201   3.809  0.7869 -0.4324 -1.5385
 2249SOL    HW3 8995   1.575   1.339   3.793 -1.0014 -0.6556  2.6047
 2249SOL    MW4 8996   1.573   1.253   3.779 -0.2449 -0.3659  0.5971
 2250SOL     OW 8997   1.618   1.519   3.834 -0.2657 -0.0083  0.3868
 2250SOL    HW2 8998   1.634   1.510   3.928  0.0116  0.5987  0.4007
 2250SOL    HW3 8999   1.694   1.568   3.802 -0.5194  0.0622 -0.0990
 2250SOL    MW4 9000   1.630   1.525   3.842 -0.2626  0.0811  0.3246
 2251SOL     OW 9001   1.358   1.636   3.805  0.1213 -0.1119 -0.4749
 2251SOL    HW2 9002   1.363   1.727   3.836  0.9066 -0.9664  2.0781
 2251SOL    HW3 9003   1.449   1.606   3.804 -0.1050 -0.7889 -1.6313
 2251SOL    MW4 9004   1.371   1.644   3.809  0.1950 -0.3140 -0.2907
 2252SOL     OW 9005   1.371   1.909   3.855  0.1111 -0.1539 -0.2227
 2252SOL    HW2 9006   1.386   1.949   3.941 -0.7674  0.2411 -0.2553
 2252SOL    HW3 9007   1.299   1.959   3.817  1.2874  0.4798 -1.7087
 2252SOL    MW4 9008   1.364   1.921   3.861  0.1504 -0.0182 -0.4230
 2253SOL     OW 9009   1.594   2.079   3.776 -0.1446 -0.1652 -0.4925
 2253SOL    HW2 9010   1.517   2.032   3.810 -0.8879  2.0662  1.0255
 2253SOL    HW3 9011   1.587   2.070   3.681 -1.6156 -1.0129 -0.3248
 2253SOL    MW4 9012   1.583   2.071   3.768 -0.4368  0.0174 -0.2701
 2254SOL     OW 9013   1.580   2.307   3.913  0.3294 -0.1525  0.0557
 2254SOL    HW2 9014   1.648   2.358   3.870  0.4796 -0.7537 -0.4380
 2254SOL    HW3 9015   1.570   2.230   3.857  0.3252 -0.8068  0.9534
 2254SOL    MW4 9016   1.588   2.303   3.900  0.3487 -0.3182  0.1090
 2255SOL     OW 9017   1.385   2.421   3.758  0.3502 -0.1032  0.2483
 2255SOL    HW2 9018   1.451   2.385   3.816  0.8692 -1.3326 -1.0718
 2255SOL    HW3 9019   1.302   2.388   3.792  0.3267  1.9398  2.2693
 2255SOL    MW4 9020   1.383   2.412   3.770  0.4156  0.0041  0.3408
 2256SOL     OW 9021   1.342   2.686   3.878  0.6398 -0.0891  0.1932
 2256SOL    HW2 9022   1.355   2.674   3.972 -1.9424 -0.8059  0.5125
 2256SOL    HW3 9023   1.359   2.600   3.840 -1.2543 -0.5813  0.4031
 2256SOL    MW4 9024   1.346   2.673   3.885  0.0492 -0.2486  0.2630
 2257SOL     OW 9025   1.568   2.807   3.784 -0.1800  0.4485 -0.1305
 2257SOL    HW2 9026   1.490   2.762   3.817 -0.5250  0.9927 -0.2080
 2257SOL    HW3 9027   1.548   2.827   3.693 -0.0981  0.9354 -0.0397
 2257SOL    MW4 9028   1.555   2.804   3.777 -0.2147  0.5845 -0.1288
 2258SOL     OW 9029   1.553   3.059   3.856 -0.1523 -0.0701 -0.0310
 2258SOL    HW2 9030   1.575   3.076   3.948 -0.1593  0.1006 -0.0606
 2258SOL    HW3 9031   1.557   2.963   3.848  1.3478  0.0052 -0.2367
 2258SOL    MW4 9032   1.556   3.048   3.867  0.0447 -0.0376 -0.0621
 2259SOL     OW 9033   1.320   3.198   3.772  0.6007 -0.1954  0.2394
 2259SOL    HW2 9034   1.302   3.288   3.799  0.3543  0.5640 -2.3445
 2259SOL    HW3 9035   1.410   3.183   3.800  0.8406  1.0402  0.1615
 2259SOL    MW4 9036   1.329   3.208   3.780  0.5998  0.0678 -0.1118
 2260SOL     OW 9037   1.310   3.468   3.827  0.2615  0.1590 -0.2661
 2260SOL    HW2 9038   1.395   3.505   3.802  0.2800  0.1006 -0.2911
 2260SOL    HW3 9039   1.247   3.538   3.810  0.3622  0.3601  0.1904
 2260SOL    MW4 9040   1.313   3.482   3.821  0.2772  0.1778 -0.2092
 2261SOL     OW 9041   1.564   3.598   3.781  0.2662  0.2286 -0.8967
 2261SOL    HW2 9042   1.574   3.683   3.824 -0.8854 -0.4645  0.7749
 2261SOL    HW3 9043   1.641   3.548   3.809 -0.5030 -0.2358  0.4248
 2261SOL    MW4 9044   1.576   3.602   3.791  0.0128  0.0759 -0.5018
 2262SOL     OW 9045   1.540   3.866   3.861  0.2269  0.2523 -0.4094
 2262SOL    HW2 9046   1.544   3.869   3.957 -0.3170 -2.1353 -0.2803
 2262SOL    HW3 9047   1.465   3.920   3.838  0.1563  0.5632  0.5268
 2262SOL    MW4 9048   1.531   3.873   3.871  0.1458 -0.0217 -0.2689
 2263SOL     OW 9049   1.321   4.018   3.780  0.1764  0.5628 -0.2269
 2263SOL    HW2 9050   1.319   4.102   3.827  1.3332  0.9928 -0.9229
 2263SOL    HW3 9051   1.339   4.042   3.689  1.5573 -0.5064 -0.2491
 2263SOL    MW4 9052   1.323   4.033   3.774  0.5112  0.4785 -0.3217
 2264SOL     OW 9053   1.341   4.265   3.894  0.3490  0.1168  0.1333
 2264SOL    HW2 9054   1.421   4.285   3.846  0.5588 -2.1941 -0.5253
 2264SOL    HW3 9055   1.275   4.322   3.855  0.9258 -0.4079 -1.6285
 2264SOL    MW4 9056   1.343   4.275   3.883  0.4528 -0.2574 -0.1861
 2265SOL     OW 9057   1.569   4.370   3.748  0.1071  0.1794 -0.1026
 2265SOL    HW2 9058   1.656   4.357   3.786  0.1116 -0.8346 -0.4708
 2265SOL    HW3 9059   1.586   4.390   3.656  0.0151  1.2901  0.1097
 2265SOL    MW4 9060   1.583   4.371   3.741  0.0955  0.1922 -0.1232
 2266SOL     OW 9061   2.039   4.651   3.867  0.2113 -0.2642  1.1280
 2266SOL    HW2 9062   2.124   4.673   3.830 -1.1510  1.1656 -1.3083
 2266SOL    HW3 9063   2.013   4.570   3.822 -0.6673  0.5110  0.2037
 2266SOL    MW4 9064   2.047   4.643   3.856 -0.0844  0.0267  0.6846
 2267SOL     OW 9065   1.808   0.100   3.734 -0.5620 -0.2536 -0.3096
 2267SOL    HW2 9066   1.892   0.072   3.773 -0.5908 -1.8100 -1.3375
 2267SOL    HW3 9067   1.742   0.050   3.782 -0.9216  0.9353  0.4626
 2267SOL    MW4 9068   1.811   0.090   3.746 -0.6132 -0.3021 -0.3433
 2268SOL     OW 9069   1.803   0.364   3.857 -0.1770  0.0518 -0.1305
 2268SOL    HW2 9070   1.791   0.361   3.952  0.8294  0.3632  0.0136
 2268SOL    HW3 9071   1.804   0.272   3.830 -0.8366 -0.0277  0.1082
 2268SOL    MW4 9072   1.802   0.352   3.866 -0.1312  0.0824 -0.0800
 2269SOL     OW 9073   2.035   0.454   3.738 -0.1737 -0.1199  0.6245
 2269SOL    HW2 9074   1.950   0.419   3.765 -0.4354  0.4838  0.6034
 2269SOL    HW3 9075   2.022   0.482   3.648  0.6421 -1.9329 -0.0668
 2269SOL    MW4 9076   2.022   0.453   3.730 -0.1006 -0.2795  0.5305
 2270SOL     OW 9077   2.026   0.706   3.864 -0.5653 -0.0170  0.0329
 2270SOL    HW2 9078   2.002   0.704   3.957 -0.9790 -0.4371 -0.0791
 2270SOL    HW3 9079   2.050   0.616   3.844  1.7153  0.5149  0.2870
 2270SOL    MW4 9080   2.026   0.694   3.874 -0.3190 -0.0022  0.0517
 2271SOL     OW 9081   1.812   0.872   3.774 -0.3909  0.0405  0.1556
 2271SOL    HW2 9082   1.880   0.808   3.795 -0.5079  0.1202  0.7705
 2271SOL    HW3 9083   1.803   0.866   3.679  1.4771  1.0282 -0.1191
 2271SOL    MW4 9084   1.820   0.863   3.764 -0.1599  0.1813  0.2005
 2272SOL     OW 9085   1.804   1.132   3.858 -0.7233  0.0248  0.1129
 2272SOL    HW2 9086   1.807   1.140   3.953 -1.4075  0.1342  0.1283
 2272SOL    HW3 9087   1.818   1.039   3.840 -0.6396 -0.0015  0.3210
 2272SOL    MW4 9088   1.806   1.121   3.868 -0.8026  0.0358  0.1424
 2273SOL     OW 9089   2.027   1.269   3.746  0.2265 -0.1574 -0.3024
 2273SOL    HW2 9090   2.102   1.210   3.758  0.2427 -0.2414 -0.8063
 2273SOL    HW3 9091   1.951   1.215   3.768  0.3139 -0.0746  0.2028
 2273SOL    MW4 9092   2.027   1.254   3.750  0.2401 -0.1576 -0.3022
 2274SOL     OW 9093   2.048   1.527   3.936 -0.2623 -0.7301 -0.1827
 2274SOL    HW2 9094   1.981   1.570   3.882  0.0745  0.6445  0.4786
 2274SOL    HW3 9095   2.058   1.441   3.896 -0.8590 -0.1611 -1.6176
 2274SOL    MW4 9096   2.040   1.522   3.923 -0.2966 -0.4737 -0.2847
 2275SOL     OW 9097   1.864   1.652   3.786 -0.9466 -0.0947  0.0196
 2275SOL    HW2 9098   1.864   1.743   3.816 -1.3575 -0.1041  0.0412
 2275SOL    HW3 9099   1.849   1.657   3.692  1.3480 -0.0058 -0.3665
 2275SOL    MW4 9100   1.862   1.664   3.778 -0.6981 -0.0842 -0.0285
 2276SOL     OW 9101   1.829   1.925   3.858 -0.4613 -0.5734  0.0348
 2276SOL    HW2 9102   1.835   1.936   3.953 -0.8310 -1.2724  0.1427
 2276SOL    HW3 9103   1.738   1.947   3.837 -0.5927 -1.1824 -0.0485
 2276SOL    MW4 9104   1.818   1.930   3.868 -0.5274 -0.7460  0.0380
 2277SOL     OW 9105   2.031   2.055   3.775 -0.0923 -0.0971  0.1346
 2277SOL    HW2 9106   1.957   2.012   3.817  0.0329 -0.3817  0.0608
 2277SOL    HW3 9107   2.010   2.055   3.682  0.1377 -0.4453  0.0812
 2277SOL    MW4 9108   2.019   2.050   3.768 -0.0454 -0.1806  0.1178
 2278SOL     OW 9109   2.016   2.317   3.864  0.2222  0.1858 -0.2077
 2278SOL    HW2 9110   1.928   2.344   3.839 -0.9516 -1.3227  2.1683
 2278SOL    HW3 9111   2.022   2.226   3.834  1.2371  0.4838 -0.9516
 2278SOL    MW4 9112   2.006   2.309   3.857  0.2012  0.0261  0.0076
 2279SOL     OW 9113   1.776   2.435   3.771 -0.2596  0.2555 -0.0113
 2279SOL    HW2 9114   1.784   2.518   3.818  0.6180 -0.0526  0.3812
 2279SOL    HW3 9115   1.784   2.459   3.679 -0.2952  0.6377  0.0832
 2279SOL    MW4 9116   1.778   2.449   3.765 -0.1485  0.2652  0.0530
 2280SOL     OW 9117   1.814   2.690   3.881  0.0052 -0.2560 -0.5907
 2280SOL    HW2 9118   1.814   2.707   3.975  1.3536  0.6092 -0.7280
 2280SOL    HW3 9119   1.734   2.731   3.849  0.2951  0.7609 -0.0340
 2280SOL    MW4 9120   1.804   2.698   3.889  0.2213 -0.0077 -0.5353
 2281SOL     OW 9121   2.039   2.849   3.807  0.5836  0.1571  0.1207
 2281SOL    HW2 9122   2.132   2.825   3.813  0.5117 -0.0018  0.6051
 2281SOL    HW3 9123   1.992   2.774   3.843  0.3724  1.1508  1.9674
 2281SOL    MW4 9124   2.045   2.836   3.813  0.5462  0.2673  0.4283
 2282SOL     OW 9125   2.016   3.128   3.909  0.2948 -0.4078  0.1769
 2282SOL    HW2 9126   2.090   3.172   3.867 -0.5102  0.0694 -0.7910
 2282SOL    HW3 9127   2.022   3.037   3.879 -0.2154 -0.0914 -0.9188
 2282SOL    MW4 9128   2.026   3.121   3.899  0.1213 -0.3031 -0.0954
 2283SOL     OW 9129   1.791   3.191   3.766 -0.8257 -0.4019 -0.3066
 2283SOL    HW2 9130   1.864   3.158   3.819  0.1415 -0.4297 -1.6248
 2283SOL    HW3 9131   1.716   3.138   3.793 -0.2406 -0.7347  0.6937
 2283SOL    MW4 9132   1.791   3.180   3.777 -0.6209 -0.4495 -0.3486
 2284SOL     OW 9133   2.904   0.572   4.848 -0.2544 -0.4187 -0.0211
 2284SOL    HW2 9134   2.963   0.496   4.851  0.0117 -0.1636  1.2878
 2284SOL    HW3 9135   2.816   0.534   4.848 -0.1192 -0.7346  0.2897
 2284SOL    MW4 9136   2.900   0.557   4.848 -0.2015 -0.4268  0.1926
 2285SOL     OW 9137   1.795   3.472   3.874 -0.0007 -0.4226  0.2552
 2285SOL    HW2 9138   1.864   3.531   3.844  0.2002 -1.3006 -1.0455
 2285SOL    HW3 9139   1.816   3.388   3.833 -1.3493 -0.9245  0.5730
 2285SOL    MW4 9140   1.807   3.469   3.865 -0.1521 -0.6046  0.1255
 2286SOL     OW 9141   2.006   3.623   3.776 -0.2751  0.2867 -0.3149
 2286SOL    HW2 9142   2.087   3.589   3.814 -1.8842 -2.0031  1.2173
 2286SOL    HW3 9143   2.017   3.610   3.681  0.7590 -0.8473 -0.0504
 2286SOL    MW4 9144   2.018   3.617   3.768 -0.3510 -0.1650 -0.0778
 2287SOL     OW 9145   1.764   4.045   3.794  0.0008 -0.1417 -0.0407
 2287SOL    HW2 9146   1.845   3.994   3.797  0.5598  0.7667  0.4615
 2287SOL    HW3 9147   1.695   3.982   3.816  0.7562 -0.5230  1.2974
 2287SOL    MW4 9148   1.765   4.030   3.797  0.1742 -0.0721  0.2021
 2288SOL     OW 9149   1.801   4.300   3.888  0.0388 -0.0403 -0.4335
 2288SOL    HW2 9150   1.868   4.325   3.825  2.7035 -0.2836  2.1870
 2288SOL    HW3 9151   1.789   4.206   3.874  0.8882 -0.1700 -0.3504
 2288SOL    MW4 9152   1.808   4.291   3.878  0.5024 -0.0895 -0.0768
 2289SOL     OW 9153   2.013   4.409   3.743  0.7284  0.3418  0.3655
 2289SOL    HW2 9154   2.084   4.359   3.783  0.9912  0.6336  0.2674
 2289SOL    HW3 9155   2.035   4.413   3.650 -0.8649 -1.9971 -0.1678
 2289SOL    MW4 9156   2.025   4.403   3.736  0.5529  0.0717  0.2822
 2290SOL     OW 9157   2.499   4.593   3.908  0.1582  0.1995 -0.2305
 2290SOL    HW2 9158   2.484   4.625   3.997  0.4070 -2.2466  0.7173
 2290SOL    HW3 9159   2.573   4.646   3.876 -0.4351  1.6401  0.6914
 2290SOL    MW4 9160   2.507   4.605   3.915  0.1127  0.0668  0.0162
 2291SOL     OW 9161   2.295   0.086   3.794 -0.6017 -0.1923 -0.4999
 2291SOL    HW2 9162   2.359   0.019   3.820 -0.0626  0.2490 -0.7018
 2291SOL    HW3 9163   2.298   0.086   3.699 -0.8068 -0.0759 -0.5058
 2291SOL    MW4 9164   2.304   0.077   3.785 -0.5576 -0.1187 -0.5273
 2292SOL     OW 9165   2.238   0.342   3.886  0.0466 -0.0629  0.1354
 2292SOL    HW2 9166   2.259   0.253   3.858 -0.5006 -0.4593  0.9677
 2292SOL    HW3 9167   2.173   0.373   3.823 -0.4957 -0.6102  0.4304
 2292SOL    MW4 9168   2.232   0.335   3.874 -0.0971 -0.1874  0.2841
 2293SOL     OW 9169   2.431   0.506   3.753  0.4643  0.6851  0.1444
 2293SOL    HW2 9170   2.363   0.457   3.799  0.1691  0.3775 -0.6091
 2293SOL    HW3 9171   2.410   0.495   3.660  1.1509  1.1533 -0.0706
 2293SOL    MW4 9172   2.419   0.498   3.747  0.5160  0.7063  0.0166
 2294SOL     OW 9173   2.474   0.764   3.852  0.2463 -0.2452  0.2329
 2294SOL    HW2 9174   2.394   0.808   3.825  0.3113 -0.7901 -0.9015
 2294SOL    HW3 9175   2.468   0.677   3.812 -0.2201 -1.5385  2.9896
 2294SOL    MW4 9176   2.463   0.758   3.843  0.1933 -0.4877  0.4470
 2295SOL     OW 9177   2.235   0.879   3.748  0.3256 -0.1201  0.1706
 2295SOL    HW2 9178   2.156   0.829   3.768 -1.2335  2.2378  0.1040
 2295SOL    HW3 9179   2.237   0.884   3.653  0.4779 -0.0491  0.1773
 2295SOL    MW4 9180   2.225   0.873   3.738  0.1400  0.2003  0.1627
 2296SOL     OW 9181   2.243   1.122   3.855 -0.3936  0.2957  0.0991
 2296SOL    HW2 9182   2.247   1.121   3.950  0.6849 -2.0290  0.0382
 2296SOL    HW3 9183   2.232   1.031   3.829 -1.7727  1.0005 -1.9766
 2296SOL    MW4 9184   2.242   1.110   3.864 -0.4333  0.0820 -0.1828
 2297SOL     OW 9185   2.473   1.276   3.743 -0.3747 -0.0329 -0.0724
 2297SOL    HW2 9186   2.461   1.363   3.782 -0.6710  0.0079 -0.2582
 2297SOL    HW3 9187   2.404   1.223   3.782  0.1155 -0.3140  0.4256
 2297SOL    MW4 9188   2.462   1.281   3.754 -0.3491 -0.0646 -0.0312
 2298SOL     OW 9189   2.471   1.533   3.839  0.1696  0.3112 -0.4178
 2298SOL    HW2 9190   2.544   1.583   3.801  0.7789 -0.7424 -0.6301
 2298SOL    HW3 9191   2.393   1.586   3.818  0.6745  0.5715 -1.6963
 2298SOL    MW4 9192   2.470   1.547   3.831  0.3166  0.2065 -0.6145
 2299SOL     OW 9193   2.236   1.673   3.788  0.0711 -0.0767  0.3444
 2299SOL    HW2 9194   2.240   1.764   3.818 -0.9462  0.5758 -1.4156
 2299SOL    HW3 9195   2.170   1.632   3.843 -0.0680  0.4645  0.5801
 2299SOL    MW4 9196   2.228   1.680   3.799 -0.0815  0.0808  0.1433
 2300SOL     OW 9197   2.261   1.943   3.882  0.1353 -0.1586 -0.2657
 2300SOL    HW2 9198   2.260   1.952   3.977  0.6096 -0.8171 -0.1976
 2300SOL    HW3 9199   2.181   1.987   3.853  0.2022  0.4126  0.4006
 2300SOL    MW4 9200   2.251   1.950   3.891  0.2067 -0.1701 -0.1688
 2301SOL     OW 9201   2.471   2.085   3.750 -0.7288 -0.0323 -0.3985
 2301SOL    HW2 9202   2.463   2.165   3.802  0.0915 -0.5994  0.6501
 2301SOL    HW3 9203   2.398   2.031   3.778 -0.2355 -0.3745  0.2614
 2301SOL    MW4 9204   2.460   2.089   3.761 -0.5555 -0.1523 -0.1731
 2302SOL     OW 9205   2.475   2.336   3.860 -0.0610 -0.4510  0.0940
 2302SOL    HW2 9206   2.550   2.384   3.825  0.7704 -0.2027  2.1255
 2302SOL    HW3 9207   2.399   2.381   3.822  0.7864 -0.0238 -1.1383
 2302SOL    MW4 9208   2.475   2.348   3.850  0.1605 -0.3619  0.1994
 2303SOL     OW 9209   2.233   2.455   3.770 -0.2564 -0.4462  0.4723
 2303SOL    HW2 9210   2.150   2.417   3.798 -1.1028  1.3811  0.5146
 2303SOL    HW3 9211   2.231   2.451   3.675 -1.5196  1.8044  0.3544
 2303SOL    MW4 9212   2.222   2.450   3.762 -0.5348  0.0918  0.4623
 2304SOL     OW 9213   2.265   2.697   3.910 -0.1856  0.0298 -0.2774
 2304SOL    HW2 9214   2.245   2.717   4.002  1.0311 -0.0170  0.0091
 2304SOL    HW3 9215   2.241   2.605   3.900  1.8361 -0.6371  0.6499
 2304SOL    MW4 9216   2.260   2.687   3.921  0.2417 -0.0644 -0.1173
 2305SOL     OW 9217   2.494   2.821   3.811  0.0149  0.0562  0.1407
 2305SOL    HW2 9218   2.427   2.761   3.845  0.3366 -0.6981 -0.5286
 2305SOL    HW3 9219   2.477   2.823   3.717  0.8021  0.0303 -0.0023
 2305SOL    MW4 9220   2.483   2.814   3.803  0.1612 -0.0467  0.0335
 2306SOL     OW 9221   2.471   3.102   3.901  0.3928 -0.4281 -0.0433
 2306SOL    HW2 9222   2.496   3.110   3.993 -0.1684  0.1846  0.0589
 2306SOL    HW3 9223   2.465   3.008   3.886  0.2405 -0.5248  0.6148
 2306SOL    MW4 9224   2.473   3.091   3.911  0.2986 -0.3600  0.0570
 2307SOL     OW 9225   2.250   3.241   3.766  0.4224 -0.2113 -0.1574
 2307SOL    HW2 9226   2.252   3.335   3.788 -0.8063 -0.2030 -0.0306
 2307SOL    HW3 9227   2.324   3.204   3.813 -0.0704  0.4262  1.1603
 2307SOL    MW4 9228   2.260   3.249   3.775  0.1953 -0.1261  0.0332
 2308SOL     OW 9229   2.234   3.511   3.844 -0.2086 -0.2599  0.5034
 2308SOL    HW2 9230   2.253   3.498   3.937  0.2210 -1.9964  0.1963
 2308SOL    HW3 9231   2.311   3.556   3.810  0.0614 -0.4919  0.7995
 2308SOL    MW4 9232   2.247   3.515   3.852 -0.1163 -0.5196  0.5020
 2309SOL     OW 9233   2.487   3.622   3.752  0.2885 -0.1514 -0.0684
 2309SOL    HW2 9234   2.564   3.571   3.775 -0.2089 -1.0050 -0.2847
 2309SOL    HW3 9235   2.484   3.618   3.656 -0.7693 -1.2297  0.0018
 2309SOL    MW4 9236   2.497   3.615   3.742  0.0833 -0.4063 -0.0877
 2310SOL     OW 9237   2.501   3.871   3.896  0.0773  0.1731 -0.1995
 2310SOL    HW2 9238   2.574   3.921   3.858  0.0081 -0.6170 -1.4075
 2310SOL    HW3 9239   2.505   3.786   3.853 -0.2597 -0.6255  1.3177
 2310SOL    MW4 9240   2.511   3.867   3.885  0.0237 -0.0366 -0.1587
 2311SOL     OW 9241   2.264   4.007   3.808  0.1426  0.6563  0.1022
 2311SOL    HW2 9242   2.333   3.948   3.838 -1.1725 -1.5139 -1.0402
 2311SOL    HW3 9243   2.260   3.994   3.713 -0.9459  1.7343 -0.0206
 2311SOL    MW4 9244   2.273   3.997   3.799 -0.1745  0.5122 -0.0647
 2312SOL     OW 9245   2.219   4.278   3.852  0.2093 -0.4110 -0.4172
 2312SOL    HW2 9246   2.228   4.277   3.948 -2.7579 -2.2383 -0.0853
 2312SOL    HW3 9247   2.236   4.188   3.826 -0.4160 -0.2392 -1.4335
 2312SOL    MW4 9248   2.222   4.266   3.861 -0.2647 -0.6295 -0.5075
 2313SOL     OW 9249   2.473   4.352   3.777  0.3246 -0.2236  0.3137
 2313SOL    HW2 9250   2.389   4.323   3.813 -0.5707  0.5850 -1.0970
 2313SOL    HW3 9251   2.490   4.435   3.821  0.5771 -0.5674  0.8740
 2313SOL    MW4 9252   2.464   4.359   3.788  0.2398 -0.1623  0.2015
 2314SOL     OW 9253   2.896   4.625   3.859  0.1634 -0.0463  0.3294
 2314SOL    HW2 9254   2.986   4.658   3.854  0.0653  0.3130  0.7929
 2314SOL    HW3 9255   2.894   4.574   3.940  0.4637 -1.6974 -0.6814
 2314SOL    MW4 9256   2.908   4.623   3.869  0.1901 -0.2167  0.2572
 2315SOL     OW 9257   2.667   0.102   3.767 -0.3251  0.4382 -0.4941
 2315SOL    HW2 9258   2.749   0.059   3.790  0.4335  2.4924  0.8357
 2315SOL    HW3 9259   2.666   0.102   3.671  2.0625  1.8218 -0.5635
 2315SOL    MW4 9260   2.678   0.097   3.758  0.0900  0.8918 -0.3278
 2316SOL     OW 9261   2.683   0.387   3.802 -0.1470  0.1883  0.1026
 2316SOL    HW2 9262   2.680   0.294   3.777  0.0337  0.4096 -0.7672
 2316SOL    HW3 9263   2.606   0.426   3.760  0.5457  0.7033 -0.7172
 2316SOL    MW4 9264   2.673   0.380   3.793 -0.0318  0.2854 -0.1203
 2317SOL     OW 9265   2.948   0.466   3.748 -0.3082  0.2351  0.2988
 2317SOL    HW2 9266   3.005   0.418   3.807  0.7604 -1.2040 -1.8443
 2317SOL    HW3 9267   2.860   0.437   3.772  0.1568 -0.8849  0.6931
 2317SOL    MW4 9268   2.944   0.455   3.759 -0.1059 -0.1025  0.0681
 2318SOL     OW 9269   2.910   0.753   3.824  0.0199 -0.3134 -0.0191
 2318SOL    HW2 9270   2.988   0.806   3.808 -0.9657  1.0204 -0.4463
 2318SOL    HW3 9271   2.925   0.673   3.773  0.0710  0.9250 -1.9884
 2318SOL    MW4 9272   2.922   0.749   3.815 -0.1034  0.0260 -0.3353
 2319SOL     OW 9273   2.694   0.909   3.770 -0.1135 -0.0067 -0.1727
 2319SOL    HW2 9274   2.768   0.856   3.799  0.6598  1.1441  0.0168
 2319SOL    HW3 9275   2.617   0.858   3.795  0.5996 -0.8376  0.3945
 2319SOL    MW4 9276   2.694   0.895   3.777  0.0826  0.0355 -0.0728
 2320SOL     OW 9277   2.664   1.143   3.915  0.3056  0.1404 -0.2370
 2320SOL    HW2 9278   2.664   1.056   3.875  1.7381  0.0809 -0.1355
 2320SOL    HW3 9279   2.595   1.191   3.868  0.3325 -0.6688 -1.1237
 2320SOL    MW4 9280   2.655   1.138   3.904  0.4982  0.0258 -0.3406
 2321SOL     OW 9281   2.871   1.266   3.770 -0.0967 -0.1465  0.6458
 2321SOL    HW2 9282   2.890   1.356   3.799 -1.5282  0.5242 -0.4468
 2321SOL    HW3 9283   2.798   1.238   3.826  0.6791 -0.8258  1.3293
 2321SOL    MW4 9284   2.864   1.275   3.782 -0.1832 -0.1476  0.5918
 2322SOL     OW 9285   2.917   1.539   3.853  0.1355 -0.3989  0.1595
 2322SOL    HW2 9286   2.931   1.532   3.948 -0.4998 -0.4891  0.2446
 2322SOL    HW3 9287   2.994   1.587   3.822 -0.3051  0.8067  0.9056
 2322SOL    MW4 9288   2.929   1.544   3.862 -0.0065 -0.2517  0.2692
 2323SOL     OW 9289   2.686   1.677   3.762 -0.1230 -0.4665  0.2581
 2323SOL    HW2 9290   2.751   1.622   3.806 -0.5095 -1.2183 -0.0949
 2323SOL    HW3 9291   2.700   1.660   3.669  0.1808  0.5279  0.1237
 2323SOL    MW4 9292   2.697   1.667   3.756 -0.1339 -0.4345  0.1938
 2324SOL     OW 9293   2.720   1.946   3.809  0.3330 -0.3279 -0.3292
 2324SOL    HW2 9294   2.716   1.851   3.793  1.9920 -0.5608  0.4501
 2324SOL    HW3 9295   2.631   1.977   3.794  0.0048 -1.8492 -1.6495
 2324SOL    MW4 9296   2.708   1.937   3.805  0.5086 -0.5593 -0.4006
 2325SOL     OW 9297   2.951   2.073   3.730  0.2234 -0.6317 -0.1404
 2325SOL    HW2 9298   2.952   2.160   3.770  0.3606 -0.3965 -0.6524
 2325SOL    HW3 9299   2.868   2.035   3.759 -1.1888  0.7458 -2.1756
 2325SOL    MW4 9300   2.940   2.080   3.739  0.0552 -0.4189 -0.4765
 2326SOL     OW 9301   2.924   2.324   3.849 -0.1703  0.1299  0.2682
 2326SOL    HW2 9302   2.945   2.321   3.943 -0.5328 -1.1820  0.3036
 2326SOL    HW3 9303   3.002   2.362   3.809 -0.5279  1.9766  1.2543
 2326SOL    MW4 9304   2.937   2.329   3.856 -0.2653  0.2005  0.4030
 2327SOL     OW 9305   2.692   2.454   3.746  0.4059 -0.0216 -0.5325
 2327SOL    HW2 9306   2.718   2.533   3.794  0.1814  0.0418 -0.5170
 2327SOL    HW3 9307   2.763   2.392   3.762  0.2314 -0.0700  0.0473
 2327SOL    MW4 9308   2.705   2.457   3.755  0.3533 -0.0196 -0.4540
 2328SOL     OW 9309   2.717   2.672   3.908  0.1964 -0.1248 -0.4208
 2328SOL    HW2 9310   2.719   2.679   4.003 -0.7242 -1.5984 -0.2647
 2328SOL    HW3 9311   2.641   2.724   3.882  0.2493  0.0038 -0.3197
 2328SOL    MW4 9312   2.707   2.680   3.917  0.0819 -0.3022 -0.3869
 2329SOL     OW 9313   2.925   2.795   3.762  0.5196 -0.5307  0.1812
 2329SOL    HW2 9314   2.927   2.884   3.797 -2.5751  1.0412 -3.3222
 2329SOL    HW3 9315   2.856   2.751   3.812  0.0778 -0.0814 -0.0352
 2329SOL    MW4 9316   2.916   2.801   3.774  0.0530 -0.2640 -0.3096
 2330SOL     OW 9317   2.913   3.044   3.903 -0.0417 -0.4043 -0.3991
 2330SOL    HW2 9318   2.991   3.087   3.869 -0.4423  0.3665 -0.3408
 2330SOL    HW3 9319   2.840   3.096   3.870 -0.5044 -0.7047  0.1470
 2330SOL    MW4 9320   2.914   3.056   3.894 -0.1556 -0.3422 -0.3194
 2331SOL     OW 9321   2.711   3.207   3.791 -0.3267 -0.4882 -0.2311
 2331SOL    HW2 9322   2.713   3.299   3.819 -0.6131 -0.5151 -0.1236
 2331SOL    HW3 9323   2.624   3.176   3.816  0.4266 -1.3218  1.4419
 2331SOL    MW4 9324   2.700   3.215   3.798 -0.2651 -0.6017  0.0038
 2332SOL     OW 9325   2.712   3.495   3.855 -0.3074  0.2800  0.1526
 2332SOL    HW2 9326   2.724   3.488   3.950  0.0896 -0.3847  0.0552
 2332SOL    HW3 9327   2.795   3.530   3.822  0.1877 -1.1462 -0.1422
 2332SOL    MW4 9328   2.724   3.499   3.863 -0.1897  0.0042  0.1009
 2333SOL     OW 9329   2.947   3.879   3.893 -0.0710  0.0919 -0.1082
 2333SOL    HW2 9330   2.943   3.883   3.989  0.7279 -0.4171 -0.0450
 2333SOL    HW3 9331   2.921   3.789   3.872 -0.8692  0.3889 -0.4126
 2333SOL    MW4 9332   2.943   3.868   3.903 -0.0709  0.0639 -0.1400
 2334SOL     OW 9333   2.945   3.616   3.778  0.3292 -0.2259  0.0035
 2334SOL    HW2 9334   3.022   3.570   3.809  1.0696  0.8978 -0.1581
 2334SOL    HW3 9335   2.947   3.606   3.683 -0.0229 -0.6497  0.0361
 2334SOL    MW4 9336   2.955   3.609   3.769  0.3804 -0.1335 -0.0135
 2335SOL     OW 9337   2.718   3.997   3.771  0.1787  0.2456  0.3456
 2335SOL    HW2 9338   2.713   4.085   3.808  0.5564  0.5319 -0.2837
 2335SOL    HW3 9339   2.800   3.961   3.803 -0.5402 -0.3229  1.5727
 2335SOL    MW4 9340   2.728   4.004   3.780  0.1337  0.2084  0.4245
 2336SOL     OW 9341   2.710   4.254   3.875  0.1981  0.0046  0.0509
 2336SOL    HW2 9342   2.778   4.299   3.824  1.9858 -0.3275  2.0889
 2336SOL    HW3 9343   2.628   4.297   3.848  1.3908  1.5665 -1.1952
 2336SOL    MW4 9344   2.708   4.266   3.864  0.5913  0.1669  0.1554
 2337SOL     OW 9345   2.917   4.381   3.748 -0.1420  0.0561  0.1343
 2337SOL    HW2 9346   2.983   4.346   3.808 -0.4704 -1.0531 -0.1443
 2337SOL    HW3 9347   2.913   4.474   3.769  1.2616  0.0730  0.3939
 2337SOL    MW4 9348   2.925   4.389   3.758 -0.0002 -0.0880  0.1318
 2338SOL     OW 9349   3.415   4.651   3.840  0.3457 -0.4627  0.5135
 2338SOL    HW2 9350   3.415   4.649   3.936 -0.5792  1.5179  0.5662
 2338SOL    HW3 9351   3.495   4.698   3.816  0.1044 -0.1363  0.3400
 2338SOL    MW4 9352   3.426   4.657   3.849  0.1919 -0.1583  0.4976
 2339SOL     OW 9353   3.145   0.052   3.794 -0.2472  0.4629 -0.0157
 2339SOL    HW2 9354   3.237   0.045   3.821 -0.3009 -0.9634 -0.1929
 2339SOL    HW3 9355   3.149   0.080   3.703  0.0728 -2.0773 -0.8096
 2339SOL    MW4 9356   3.158   0.055   3.786 -0.2121 -0.0605 -0.1438
 2340SOL     OW 9357   3.164   0.323   3.862  0.3190  0.2510  0.1774
 2340SOL    HW2 9358   3.178   0.306   3.955  0.3873 -0.2841  0.0695
 2340SOL    HW3 9359   3.151   0.236   3.823  0.4579  0.4600 -0.3400
 2340SOL    MW4 9360   3.164   0.309   3.869  0.3463  0.2079  0.0949
 2341SOL     OW 9361   3.392   0.440   3.741  0.0471 -0.1126  0.0296
 2341SOL    HW2 9362   3.467   0.428   3.799  0.0515  1.3009  0.3299
 2341SOL    HW3 9363   3.321   0.393   3.785 -0.1039  1.4385  1.5323
 2341SOL    MW4 9364   3.392   0.432   3.755  0.0278  0.2786  0.2675
 2342SOL     OW 9365   3.376   0.724   3.844 -0.2936  0.4130  0.0542
 2342SOL    HW2 9366   3.378   0.712   3.939 -1.6008 -0.4276 -0.0121
 2342SOL    HW3 9367   3.379   0.635   3.809 -1.5845  0.6236 -0.6365
 2342SOL    MW4 9368   3.376   0.710   3.852 -0.6364  0.3299 -0.0457
 2343SOL     OW 9369   3.157   0.897   3.783 -0.0781 -0.0202 -0.7154
 2343SOL    HW2 9370   3.227   0.839   3.812 -0.8038 -0.9031 -0.6985
 2343SOL    HW3 9371   3.149   0.880   3.689 -0.4959 -0.1796 -0.6546
 2343SOL    MW4 9372   3.165   0.887   3.774 -0.2290 -0.1577 -0.7052
 2344SOL     OW 9373   3.119   1.159   3.870 -0.7842 -0.2291  0.1066
 2344SOL    HW2 9374   3.130   1.076   3.824  0.1807 -0.2688  0.3951
 2344SOL    HW3 9375   3.039   1.196   3.833 -0.8929 -1.0003 -0.4585
 2344SOL    MW4 9376   3.110   1.153   3.859 -0.6712 -0.3361  0.0701
 2345SOL     OW 9377   3.375   1.277   3.791 -0.3522  0.1258 -0.0027
 2345SOL    HW2 9378   3.287   1.263   3.826 -0.1725  1.3735  0.9800
 2345SOL    HW3 9379   3.365   1.264   3.697 -0.9072 -2.9713  0.4019
 2345SOL    MW4 9380   3.362   1.273   3.783 -0.4017 -0.1182  0.1803
 2346SOL     OW 9381   3.405   1.550   3.806 -0.3406  0.0790  0.0383
 2346SOL    HW2 9382   3.385   1.457   3.816  0.0963  0.0788  0.9413
 2346SOL    HW3 9383   3.322   1.589   3.779 -0.6557 -0.4941  0.1666
 2346SOL    MW4 9384   3.391   1.543   3.804 -0.3246  0.0034  0.1744
 2347SOL     OW 9385   3.152   1.637   3.771 -0.2031 -0.4078 -0.6560
 2347SOL    HW2 9386   3.154   1.732   3.784  0.1473 -0.5159  0.0792
 2347SOL    HW3 9387   3.149   1.626   3.675 -0.4288  0.3417 -0.7396
 2347SOL    MW4 9388   3.152   1.648   3.760 -0.1866 -0.3231 -0.5700
 2348SOL     OW 9389   3.155   1.921   3.830 -0.2580 -0.2679 -0.5024
 2348SOL    HW2 9390   3.144   1.928   3.925 -0.8127 -2.1510 -0.3977
 2348SOL    HW3 9391   3.083   1.972   3.794 -0.7311 -0.4812  0.1142
 2348SOL    MW4 9392   3.144   1.929   3.838 -0.3936 -0.5445 -0.4072
 2349SOL     OW 9393   3.395   2.003   3.716  0.0659  0.1369 -0.0302
 2349SOL    HW2 9394   3.302   1.981   3.714 -0.0435  0.6346 -3.0769
 2349SOL    HW3 9395   3.410   2.051   3.634  3.1553 -0.5458  0.0774
 2349SOL    MW4 9396   3.385   2.007   3.705  0.4591  0.1125 -0.4180
 2350SOL     OW 9397   3.357   2.243   3.875 -0.3885 -0.0676 -0.1853
 2350SOL    HW2 9398   3.284   2.293   3.839 -0.5480  0.9004  1.4457
 2350SOL    HW3 9399   3.348   2.156   3.835 -1.3490  0.5817 -1.4033
 2350SOL    MW4 9400   3.346   2.238   3.865 -0.5363  0.1457 -0.1308
 2351SOL     OW 9401   3.166   2.403   3.765 -0.4490  0.0109 -0.3867
 2351SOL    HW2 9402   3.182   2.490   3.801 -0.7649 -0.6432  1.4018
 2351SOL    HW3 9403   3.169   2.415   3.670  1.1539  1.6551 -0.1578
 2351SOL    MW4 9404   3.169   2.416   3.757 -0.2792  0.1416 -0.1205
 2352SOL     OW 9405   3.170   2.660   3.850 -0.0592  0.2241 -0.2708
 2352SOL    HW2 9406   3.177   2.690   3.941 -1.9438  1.2321 -0.4325
 2352SOL    HW3 9407   3.089   2.699   3.818 -0.0270 -1.0952 -2.0386
 2352SOL    MW4 9408   3.160   2.669   3.858 -0.3036  0.1830 -0.5254
 2353SOL     OW 9409   3.382   2.818   3.756 -0.3532 -0.3246  0.0292
 2353SOL    HW2 9410   3.307   2.772   3.793 -0.7793 -0.2947 -0.7880
 2353SOL    HW3 9411   3.378   2.800   3.662  0.3104  0.1756 -0.1039
 2353SOL    MW4 9412   3.372   2.810   3.748 -0.3219 -0.2546 -0.0961
 2354SOL     OW 9413   3.384   3.085   3.843 -0.1203 -0.2388 -0.2034
 2354SOL    HW2 9414   3.460   3.129   3.804 -0.8894  0.0248 -1.4360
 2354SOL    HW3 9415   3.395   2.993   3.818 -0.3974 -0.1379 -0.7067
 2354SOL    MW4 9416   3.395   3.078   3.835 -0.2584 -0.1907 -0.4324
 2355SOL     OW 9417   3.139   3.185   3.795 -0.3722  0.7801 -0.4507
 2355SOL    HW2 9418   3.225   3.145   3.810 -1.4495 -1.4616  0.0657
 2355SOL    HW3 9419   3.125   3.177   3.701 -1.0380 -1.1131 -0.2121
 2355SOL    MW4 9420   3.149   3.178   3.785 -0.6022  0.2346 -0.3511
 2356SOL     OW 9421   3.151   3.452   3.875  0.0924 -0.1818 -0.2355
 2356SOL    HW2 9422   3.238   3.481   3.848  0.1708  0.9961  1.2360
 2356SOL    HW3 9423   3.143   3.364   3.839  1.3440  0.2237 -1.5661
 2356SOL    MW4 9424   3.161   3.444   3.866  0.2679  0.0271 -0.2169
 2357SOL     OW 9425   3.372   3.570   3.765 -0.0312  0.0667 -0.3513
 2357SOL    HW2 9426   3.375   3.663   3.788  1.8895 -0.0781  0.0682
 2357SOL    HW3 9427   3.400   3.568   3.673 -0.0128 -0.1039 -0.3412
 2357SOL    MW4 9428   3.376   3.582   3.756  0.2246  0.0251 -0.2947
 2358SOL     OW 9429   3.345   3.857   3.822 -0.3613 -0.3562 -0.4767
 2358SOL    HW2 9430   3.420   3.909   3.792 -0.6818  0.8179  0.7245
 2358SOL    HW3 9431   3.269   3.908   3.796 -0.6790 -0.2477  0.6796
 2358SOL    MW4 9432   3.345   3.870   3.814 -0.4455 -0.1870 -0.1657
 2359SOL     OW 9433   3.137   4.016   3.748 -0.1598 -0.0489  0.2253
 2359SOL    HW2 9434   3.140   4.101   3.791  0.7440  1.1630 -2.0962
 2359SOL    HW3 9435   3.066   3.969   3.792 -0.5022  1.7990  1.7237
 2359SOL    MW4 9436   3.128   4.021   3.759 -0.0857  0.3548  0.1167
 2360SOL     OW 9437   3.116   4.269   3.886 -0.2877 -0.3599 -0.0696
 2360SOL    HW2 9438   3.119   4.264   3.981 -0.5091  0.0711 -0.0391
 2360SOL    HW3 9439   3.197   4.314   3.861 -0.5340  0.1046 -0.0413
 2360SOL    MW4 9440   3.127   4.274   3.895 -0.3494 -0.2418 -0.0618
 2361SOL     OW 9441   3.359   4.386   3.774 -0.2829 -0.0597  0.2116
 2361SOL    HW2 9442   3.432   4.343   3.818 -0.6697 -1.2082 -0.2462
 2361SOL    HW3 9443   3.362   4.476   3.805  1.8479  0.1297 -0.4371
 2361SOL    MW4 9444   3.369   4.392   3.784 -0.0528 -0.1863  0.0656
 2362SOL     OW 9445   3.781   4.606   3.889 -0.0377 -0.3287 -0.0470
 2362SOL    HW2 9446   3.869   4.639   3.870 -0.0164 -0.1035  0.4294
 2362SOL    HW3 9447   3.780   4.517   3.854 -0.0406  0.1107 -1.2022
 2362SOL    MW4 9448   3.792   4.598   3.882 -0.0353 -0.2410 -0.1366
 2363SOL     OW 9449   3.630   0.155   3.791 -0.2401 -0.1153  0.1893
 2363SOL    HW2 9450   3.688   0.090   3.832  0.5854  0.5228  0.0349
 2363SOL    HW3 9451   3.646   0.146   3.698 -0.3204  0.1379  0.1520
 2363SOL    MW4 9452   3.639   0.145   3.784 -0.1418  0.0023  0.1640
 2364SOL     OW 9453   3.606   0.387   3.928  0.5246 -0.5771 -0.0058
 2364SOL    HW2 9454   3.685   0.433   3.902  0.4798 -1.1236 -1.1181
 2364SOL    HW3 9455   3.608   0.305   3.879 -0.5492 -0.7477  0.2188
 2364SOL    MW4 9456   3.617   0.383   3.918  0.3770 -0.6717 -0.1229
 2365SOL     OW 9457   3.841   0.498   3.858  0.4109  0.0223 -0.4446
 2365SOL    HW2 9458   3.924   0.472   3.898 -0.7331 -0.3166  1.7828
 2365SOL    HW3 9459   3.838   0.593   3.871  1.1666  0.2888 -1.9985
 2365SOL    MW4 9460   3.852   0.507   3.865  0.3597  0.0127 -0.3557
 2366SOL     OW 9461   3.829   0.762   3.909  0.6040 -1.2209 -0.0731
 2366SOL    HW2 9462   3.894   0.813   3.860 -0.6920  0.4459 -0.0824
 2366SOL    HW3 9463   3.745   0.789   3.873 -0.2117 -2.0586  1.1740
 2366SOL    MW4 9464   3.826   0.772   3.898  0.3254 -1.1115  0.0902
 2367SOL     OW 9465   3.606   0.859   3.773  0.2385 -0.0105  0.0245
 2367SOL    HW2 9466   3.590   0.949   3.803  0.1563  0.1075 -0.3707
 2367SOL    HW3 9467   3.538   0.807   3.816  0.1644  0.1469  0.0986
 2367SOL    MW4 9468   3.595   0.864   3.783  0.2179  0.0259 -0.0178
 2368SOL     OW 9469   3.563   1.105   3.890  0.2070 -0.5992 -0.0138
 2368SOL    HW2 9470   3.635   1.154   3.852  0.1465  0.0767  0.7331
 2368SOL    HW3 9471   3.485   1.157   3.873 -0.0160 -0.9918 -0.2161
 2368SOL    MW4 9472   3.562   1.118   3.883  0.1696 -0.5619  0.0580
 2369SOL     OW 9473   3.792   1.243   3.805  0.0705 -0.4096  0.4934
 2369SOL    HW2 9474   3.859   1.193   3.851  0.3994 -0.0602  0.3970
 2369SOL    HW3 9475   3.798   1.331   3.841  0.3912 -0.1108 -0.2780
 2369SOL    MW4 9476   3.802   1.248   3.816  0.1562 -0.3241  0.3789
 2370SOL     OW 9477   3.834   1.507   3.898 -0.4186 -0.3944 -0.2409
 2370SOL    HW2 9478   3.829   1.509   3.993  0.2058  1.1583 -0.2321
 2370SOL    HW3 9479   3.763   1.563   3.868 -0.3406 -0.5278 -0.6825
 2370SOL    MW4 9480   3.824   1.514   3.906 -0.3259 -0.2071 -0.2980
 2371SOL     OW 9481   3.648   1.671   3.770 -0.0061 -0.8541  0.1742
 2371SOL    HW2 9482   3.564   1.626   3.784 -1.1933  1.2946  0.1694
 2371SOL    HW3 9483   3.654   1.680   3.675  0.5003 -1.5044  0.1458
 2371SOL    MW4 9484   3.637   1.666   3.759 -0.0959 -0.6564  0.1698
 2372SOL     OW 9485   3.620   1.931   3.879 -0.3110  0.0122  0.3266
 2372SOL    HW2 9486   3.630   1.843   3.841 -1.2859  0.3085 -0.6225
 2372SOL    HW3 9487   3.545   1.969   3.833 -1.1328  0.6085  2.1074
 2372SOL    MW4 9488   3.611   1.924   3.868 -0.5481  0.1299  0.4363
 2373SOL     OW 9489   3.854   2.037   3.779 -0.0836 -0.1090 -0.3480
 2373SOL    HW2 9490   3.913   1.983   3.832 -0.9760 -0.4396  0.3245
 2373SOL    HW3 9491   3.766   2.011   3.808 -0.5313  1.3516 -0.3651
 2373SOL    MW4 9492   3.850   2.027   3.790 -0.2604  0.0401 -0.2616
 2374SOL     OW 9493   3.822   2.307   3.871 -0.6348 -0.0110  0.2306
 2374SOL    HW2 9494   3.730   2.328   3.858 -0.6697 -0.6964 -0.6770
 2374SOL    HW3 9495   3.825   2.211   3.872 -0.0420  0.0092  1.0699
 2374SOL    MW4 9496   3.810   2.297   3.870 -0.5612 -0.0987  0.2216
 2375SOL     OW 9497   3.568   2.403   3.806  0.6573 -0.0209 -0.6968
 2375SOL    HW2 9498   3.488   2.350   3.813 -0.9828  2.4095 -0.7212
 2375SOL    HW3 9499   3.582   2.412   3.712  1.5354 -1.2508 -0.6984
 2375SOL    MW4 9500   3.559   2.397   3.794  0.5568  0.1375 -0.7002
 2376SOL     OW 9501   3.600   2.685   3.826 -0.1429  0.1670  0.2501
 2376SOL    HW2 9502   3.563   2.598   3.812 -0.0775  0.1353  0.2762
 2376SOL    HW3 9503   3.530   2.745   3.801  0.6481  0.1407 -2.2781
 2376SOL    MW4 9504   3.586   2.682   3.821 -0.0299  0.1594 -0.0800
 2377SOL     OW 9505   3.850   2.811   3.753 -0.4711  0.6346 -0.2158
 2377SOL    HW2 9506   3.924   2.766   3.793 -0.5120 -0.8442 -1.7602
 2377SOL    HW3 9507   3.773   2.764   3.786 -0.5253 -0.3022 -1.6299
 2377SOL    MW4 9508   3.849   2.799   3.763 -0.4837  0.3159 -0.6062
 2378SOL     OW 9509   3.837   3.058   3.872 -0.2899  0.0317  0.1909
 2378SOL    HW2 9510   3.757   3.105   3.851  0.0259 -0.3717 -2.0444
 2378SOL    HW3 9511   3.827   2.973   3.830  0.9851 -0.2916  0.5112
 2378SOL    MW4 9512   3.825   3.053   3.863 -0.0800 -0.0642 -0.0618
 2379SOL     OW 9513   3.622   3.200   3.750 -0.4536 -0.0655  0.0358
 2379SOL    HW2 9514   3.594   3.288   3.778  1.2808  0.3012  0.7041
 2379SOL    HW3 9515   3.620   3.204   3.654 -1.9140  0.1925  0.0719
 2379SOL    MW4 9516   3.618   3.212   3.741 -0.4174  0.0169  0.1287
 2380SOL     OW 9517   3.600   3.446   3.880 -0.4115 -0.2843 -0.3830
 2380SOL    HW2 9518   3.623   3.462   3.972  0.5989  0.3270 -0.7327
 2380SOL    HW3 9519   3.518   3.493   3.868 -1.2356 -1.4320  0.5410
 2380SOL    MW4 9520   3.592   3.454   3.891 -0.3869 -0.3551 -0.3072
 2381SOL     OW 9521   3.801   3.608   3.763  0.2198  0.2559  0.3784
 2381SOL    HW2 9522   3.783   3.693   3.804  0.0613  0.2393  0.3442
 2381SOL    HW3 9523   3.740   3.548   3.806 -1.8097  0.7458 -1.7252
 2381SOL    MW4 9524   3.791   3.612   3.774 -0.0689  0.3184  0.0963
 2382SOL     OW 9525   3.768   3.859   3.888  0.2454  0.0417 -0.2958
 2382SOL    HW2 9526   3.783   3.860   3.983 -0.0731  0.6420 -0.2472
 2382SOL    HW3 9527   3.853   3.881   3.850  0.3729 -0.1990 -0.1468
 2382SOL    MW4 9528   3.781   3.862   3.896  0.2202  0.0892 -0.2697
 2383SOL     OW 9529   3.573   3.994   3.758 -0.3995 -0.3495 -0.2451
 2383SOL    HW2 9530   3.564   4.081   3.796 -0.6846 -0.0505 -0.9920
 2383SOL    HW3 9531   3.639   3.950   3.812 -0.0515  0.4219 -0.0432
 2383SOL    MW4 9532   3.580   3.999   3.770 -0.3912 -0.2083 -0.3170
 2384SOL     OW 9533   3.562   4.230   3.903 -0.3664 -0.3026  0.2673
 2384SOL    HW2 9534   3.586   4.217   3.994  0.5948 -0.9902 -0.0751
 2384SOL    HW3 9535   3.631   4.287   3.868 -0.3673 -0.5747 -0.1907
 2384SOL    MW4 9536   3.575   4.236   3.910 -0.2397 -0.4292  0.1617
 2385SOL     OW 9537   3.785   4.359   3.788 -0.0764 -0.1507 -0.0800
 2385SOL    HW2 9538   3.858   4.315   3.829  1.5001  0.8577 -1.7257
 2385SOL    HW3 9539   3.813   4.373   3.697 -2.1834  0.4943 -0.6652
 2385SOL    MW4 9540   3.798   4.355   3.781 -0.1464  0.0674 -0.3743
 2386SOL     OW 9541   4.261   4.597   3.876  0.2882 -0.5699 -0.8104
 2386SOL    HW2 9542   4.274   4.591   3.971 -3.0223  1.3841 -0.1547
 2386SOL    HW3 9543   4.334   4.650   3.845  0.0606  0.9185  1.0604
 2386SOL    MW4 9544   4.272   4.603   3.885 -0.1786 -0.1157 -0.4771
 2387SOL     OW 9545   4.018   0.064   3.807 -0.1336  0.0564  0.2141
 2387SOL    HW2 9546   4.103   0.041   3.843 -0.3355  0.1516  0.7494
 2387SOL    HW3 9547   4.033   0.074   3.713  1.0697  2.9802  0.6585
 2387SOL    MW4 9548   4.031   0.062   3.799 -0.0015  0.4547  0.3434
 2388SOL     OW 9549   4.068   0.347   3.918 -0.1238  0.0763 -0.2264
 2388SOL    HW2 9550   4.047   0.324   4.008  0.2772  0.2486 -0.0912
 2388SOL    HW3 9551   4.047   0.268   3.868  1.1757 -0.5643  0.2237
 2388SOL    MW4 9552   4.062   0.334   3.923  0.1006  0.0145 -0.1492
 2389SOL     OW 9553   4.270   0.505   3.805 -0.5285 -0.0281  0.3783
 2389SOL    HW2 9554   4.195   0.448   3.823 -0.6058 -0.1302 -0.2524
 2389SOL    HW3 9555   4.269   0.517   3.710  1.2087 -1.3050  0.1812
 2389SOL    MW4 9556   4.260   0.499   3.795 -0.3095 -0.2100  0.2691
 2390SOL     OW 9557   4.233   0.765   3.869 -0.1816 -0.5588 -0.3830
 2390SOL    HW2 9558   4.154   0.788   3.819 -0.4541 -0.1142  0.2479
 2390SOL    HW3 9559   4.251   0.674   3.845 -0.0261 -0.2023 -1.6664
 2390SOL    MW4 9560   4.225   0.756   3.859 -0.1970 -0.4531 -0.4691
 2391SOL     OW 9561   4.008   0.908   3.759  0.5127  0.3226 -0.1511
 2391SOL    HW2 9562   4.028   0.996   3.791  2.3909  0.0782 -0.5698
 2391SOL    HW3 9563   4.004   0.917   3.664  2.6960 -0.3724 -0.3488
 2391SOL    MW4 9564   4.010   0.921   3.751  1.0485  0.1987 -0.2324
 2392SOL     OW 9565   4.030   1.141   3.920  0.0085 -0.3519  0.3138
 2392SOL    HW2 9566   4.033   1.155   4.014 -0.5574  1.0315  0.1407
 2392SOL    HW3 9567   4.111   1.181   3.887  0.6838 -1.6981  0.3081
 2392SOL    MW4 9568   4.041   1.148   3.928  0.0230 -0.3470  0.2902
 2393SOL     OW 9569   4.255   1.271   3.827  0.1965  0.0883  0.4576
 2393SOL    HW2 9570   4.279   1.352   3.872  0.9580  0.2476 -0.2224
 2393SOL    HW3 9571   4.263   1.292   3.734 -0.3579 -0.5391  0.2644
 2393SOL    MW4 9572   4.259   1.284   3.821  0.2238  0.0266  0.3424
 2394SOL     OW 9573   4.296   1.531   3.927  0.5010 -0.3074  0.0596
 2394SOL    HW2 9574   4.222   1.571   3.881  1.0557  0.7163  0.0271
 2394SOL    HW3 9575   4.373   1.574   3.888  1.1255 -1.6001 -0.1392
 2394SOL    MW4 9576   4.296   1.542   3.915  0.6566 -0.3429  0.0291
 2395SOL     OW 9577   4.072   1.626   3.798  0.0509  0.5586 -0.1095
 2395SOL    HW2 9578   4.066   1.713   3.839 -0.7481 -0.1733  1.3483
 2395SOL    HW3 9579   3.989   1.584   3.818  0.4218 -0.5583 -0.8371
 2395SOL    MW4 9580   4.060   1.632   3.806 -0.0056  0.3147 -0.0132
 2396SOL     OW 9581   4.071   1.878   3.898  0.0576  0.3101 -0.0319
 2396SOL    HW2 9582   4.086   1.888   3.992 -0.6275 -0.6305  0.1827
 2396SOL    HW3 9583   4.142   1.928   3.857  1.4216 -0.7702  0.9841
 2396SOL    MW4 9584   4.082   1.886   3.905  0.1472  0.0435  0.1305
 2397SOL     OW 9585   4.276   2.051   3.804  0.3116 -0.4975  0.1478
 2397SOL    HW2 9586   4.275   2.138   3.844 -0.9537 -0.3369 -0.2128
 2397SOL    HW3 9587   4.300   2.067   3.713  0.7378 -0.5907  0.2467
 2397SOL    MW4 9588   4.279   2.064   3.798  0.2009 -0.4886  0.1132
 2398SOL     OW 9589   4.282   2.314   3.872 -0.7414  0.5207  0.2856
 2398SOL    HW2 9590   4.290   2.311   3.967  0.2150 -0.0835  0.1958
 2398SOL    HW3 9591   4.194   2.349   3.856 -1.4811 -0.8185  1.3745
 2398SOL    MW4 9592   4.272   2.318   3.883 -0.7128  0.2643  0.4174
 2399SOL     OW 9593   4.047   2.413   3.763  0.0598  0.7281 -0.2620
 2399SOL    HW2 9594   4.047   2.504   3.789 -0.2312  0.8494 -0.6831
 2399SOL    HW3 9595   3.962   2.379   3.791  0.4074  0.4243  0.4462
 2399SOL    MW4 9596   4.036   2.420   3.770  0.0673  0.7040 -0.2241
 2400SOL     OW 9597   4.051   2.669   3.881  0.4384 -0.6079  0.3504
 2400SOL    HW2 9598   4.061   2.659   3.976  0.3039  0.5875  0.5003
 2400SOL    HW3 9599   4.126   2.722   3.854  0.7591 -1.3762 -0.3006
 2400SOL    MW4 9600   4.063   2.675   3.890  0.4630 -0.5515  0.2843
 2401SOL     OW 9601   4.277   2.834   3.764 -0.0367  0.8054  0.4187
 2401SOL    HW2 9602   4.268   2.926   3.788  0.7836  0.7667  0.8801
 2401SOL    HW3 9603   4.360   2.807   3.804 -0.3796 -0.1858  0.4665
 2401SOL    MW4 9604   4.286   2.843   3.773  0.0263  0.6695  0.4859
 2402SOL     OW 9605   4.275   3.089   3.925 -0.1806  0.4347 -0.0628
 2402SOL    HW2 9606   4.212   3.146   3.881 -0.0223  1.2161  0.7117
 2402SOL    HW3 9607   4.359   3.108   3.882 -0.1956  0.5145 -0.0577
 2402SOL    MW4 9608   4.278   3.099   3.913 -0.1617  0.5484  0.0401
 2403SOL     OW 9609   4.069   3.225   3.787  0.0479  0.0745 -0.0244
 2403SOL    HW2 9610   4.001   3.164   3.816 -0.2490  0.2471 -0.3599
 2403SOL    HW3 9611   4.058   3.231   3.692  0.9583 -0.4059 -0.1607
 2403SOL    MW4 9612   4.059   3.218   3.779  0.1288  0.0339 -0.0866
 2404SOL     OW 9613   4.022   3.485   3.857 -0.7521  0.4598 -0.1512
 2404SOL    HW2 9614   4.013   3.392   3.835 -0.9354  0.5763 -0.5738
 2404SOL    HW3 9615   3.946   3.526   3.816  0.1334  1.0227 -1.2538
 2404SOL    MW4 9616   4.011   3.478   3.849 -0.6595  0.5495 -0.3525
 2405SOL     OW 9617   4.269   3.610   3.800 -0.2378 -0.8118 -0.1257
 2405SOL    HW2 9618   4.197   3.548   3.816 -0.6983 -0.1835  0.2889
 2405SOL    HW3 9619   4.346   3.569   3.839 -0.6421 -0.9067  0.5817
 2405SOL    MW4 9620   4.269   3.596   3.807 -0.3519 -0.7414  0.0224
 2406SOL     OW 9621   4.243   3.851   3.922 -0.0800  0.4474 -0.1853
 2406SOL    HW2 9622   4.168   3.900   3.888 -0.9618 -0.6325  0.1879
 2406SOL    HW3 9623   4.242   3.768   3.875  1.7041  0.9506 -1.1755
 2406SOL    MW4 9624   4.233   3.847   3.911  0.0391  0.3713 -0.2667
 2407SOL     OW 9625   4.017   3.951   3.803  0.0247 -0.4350  0.3363
 2407SOL    HW2 9626   4.020   4.044   3.822 -2.3611 -0.2482 -0.0994
 2407SOL    HW3 9627   4.031   3.945   3.708 -0.2641 -0.5041  0.2995
 2407SOL    MW4 9628   4.019   3.962   3.793 -0.3282 -0.4195  0.2740
 2408SOL     OW 9629   4.028   4.215   3.881  0.2341  0.0135  0.7573
 2408SOL    HW2 9630   4.040   4.215   3.976  0.3615  1.0809  0.7364
 2408SOL    HW3 9631   4.102   4.264   3.846 -1.1588  1.8086  0.2773
 2408SOL    MW4 9632   4.039   4.221   3.889  0.0671  0.3912  0.6912
 2409SOL     OW 9633   4.256   4.345   3.781 -0.7862 -0.1565 -0.2941
 2409SOL    HW2 9634   4.247   4.434   3.814  0.7775 -1.1666  3.0951
 2409SOL    HW3 9635   4.342   4.316   3.812 -1.5388 -3.0724 -0.7422
 2409SOL    MW4 9636   4.266   4.353   3.789 -0.6792 -0.6745  0.0939
 2410SOL     OW 9637   0.453   1.147   4.149  0.1788  0.3069 -0.0260
 2410SOL    HW2 9638   0.375   1.191   4.182 -0.9736 -1.1795 -0.7294
 2410SOL    HW3 9639   0.526   1.195   4.190 -1.0923  1.2857  1.1611
 2410SOL    MW4 9640   0.452   1.159   4.159 -0.1409  0.2399  0.0378
 2411SOL     OW 9641   0.001   0.090   4.262 -0.0849 -0.0499  0.2577
 2411SOL    HW2 9642  -0.018   0.169   4.212 -1.3985  0.0749  0.9473
 2411SOL    HW3 9643  -0.060   0.024   4.228  0.0713 -0.3879  0.6180
 2411SOL    MW4 9644  -0.009   0.091   4.251 -0.2376 -0.0780  0.3962
 2412SOL     OW 9645   3.481   2.799   4.511 -0.1421 -0.6390  0.0616
 2412SOL    HW2 9646   3.456   2.877   4.561 -0.6043 -0.1374 -0.9355
 2412SOL    HW3 9647   3.559   2.766   4.555  0.6682  0.9794 -0.1236
 2412SOL    MW4 9648   3.488   2.805   4.524 -0.0962 -0.3593 -0.0944
 2413SOL     OW 9649   1.641   1.573   4.474  0.0653  0.3012  0.2994
 2413SOL    HW2 9650   1.684   1.586   4.390 -2.2821  2.2004 -0.6734
 2413SOL    HW3 9651   1.697   1.617   4.537  0.7103  0.8018 -0.6161
 2413SOL    MW4 9652   1.654   1.580   4.471 -0.1593  0.6178  0.0503
 2414SOL     OW 9653   0.221   0.460   4.292  0.1972 -0.0003 -0.2197
 2414SOL    HW2 9654   0.304   0.424   4.260  0.0275  0.5076 -1.2512
 2414SOL    HW3 9655   0.227   0.553   4.270  0.3668  0.4929  1.8361
 2414SOL    MW4 9656   0.233   0.468   4.285  0.1972  0.1318 -0.0845
 2415SOL     OW 9657   3.173   1.629   4.168 -0.1707 -0.1262  0.7034
 2415SOL    HW2 9658   3.189   1.636   4.262  0.0953 -0.5802  0.6919
 2415SOL    HW3 9659   3.155   1.719   4.140  0.5267  0.1198  1.0467
 2415SOL    MW4 9660   3.172   1.642   4.176 -0.0436 -0.1536  0.7472
 2416SOL     OW 9661   4.452   1.127   4.130 -0.1543 -0.5785  0.4533
 2416SOL    HW2 9662   4.386   1.192   4.157 -0.7946 -2.0140  2.5011
 2416SOL    HW3 9663   4.446   1.125   4.035 -0.4233  2.0383  0.3634
 2416SOL    MW4 9664   4.442   1.136   4.121 -0.2742 -0.4227  0.7116
 2417SOL     OW 9665   0.424   2.924   4.496 -0.0997 -0.3660 -0.6235
 2417SOL    HW2 9666   0.386   2.994   4.550  0.4749  0.0287 -0.7177
 2417SOL    HW3 9667   0.403   2.843   4.543  0.8499  0.0058  0.4792
 2417SOL    MW4 9668   0.417   2.923   4.510  0.1014 -0.2648 -0.4904
 2418SOL     OW 9669   4.057   2.694   4.164 -0.4416  0.2501  0.3078
 2418SOL    HW2 9670   4.060   2.608   4.205 -1.2281 -0.5249 -1.2062
 2418SOL    HW3 9671   4.140   2.735   4.188 -0.4343 -0.5820  1.7613
 2418SOL    MW4 9672   4.068   2.688   4.172 -0.5444  0.0380  0.2998
 2419SOL     OW 9673   0.665   2.837   4.158  0.1730 -0.1180 -0.1140
 2419SOL    HW2 9674   0.740   2.787   4.125  1.0433  0.2847  1.1940
 2419SOL    HW3 9675   0.595   2.773   4.167  0.8011 -0.7966  0.0453
 2419SOL    MW4 9676   0.666   2.822   4.155  0.3707 -0.1544  0.0796
 2420SOL     OW 9677   0.222   1.500   4.368 -0.1003 -0.0128 -0.0360
 2420SOL    HW2 9678   0.298   1.496   4.426 -0.9023 -0.5874  1.0215
 2420SOL    HW3 9679   0.209   1.409   4.340  0.3641  0.2872 -1.2395
 2420SOL    MW4 9680   0.230   1.487   4.372 -0.1448 -0.0490 -0.0553
 2421SOL     OW 9681   4.052   0.343   4.206 -0.2905 -0.4526 -0.4603
 2421SOL    HW2 9682   4.123   0.398   4.237  0.5240 -2.7511  1.9569
 2421SOL    HW3 9683   3.972   0.387   4.237  0.1633  0.9296 -1.2128
 2421SOL    MW4 9684   4.051   0.356   4.215 -0.1232 -0.5735 -0.2406
 2422SOL     OW 9685   0.447   2.675   4.177  0.0717 -0.0682 -0.1511
 2422SOL    HW2 9686   0.454   2.668   4.082 -0.1101  1.2485 -0.2680
 2422SOL    HW3 9687   0.463   2.586   4.209  0.5433 -0.4338 -1.3841
 2422SOL    MW4 9688   0.450   2.662   4.169  0.1099  0.0573 -0.3292
 2423SOL     OW 9689   0.483   2.406   4.274  0.3013  0.1887  0.0122
 2423SOL    HW2 9690   0.546   2.357   4.222  1.1188  1.8274 -0.5557
 2423SOL    HW3 9691   0.502   2.381   4.365 -0.2261 -1.6149 -0.3531
 2423SOL    MW4 9692   0.494   2.397   4.279  0.3396  0.1669 -0.1109
 2424SOL     OW 9693   3.585   0.106   4.275 -0.3425 -1.0694  0.2471
 2424SOL    HW2 9694   3.663   0.066   4.237  1.0694  0.5444  1.3312
 2424SOL    HW3 9695   3.590   0.198   4.247 -0.0581 -0.1867  3.0192
 2424SOL    MW4 9696   3.596   0.113   4.267 -0.1187 -0.7401  0.7559
 2425SOL     OW 9697   0.408   3.967   4.236 -0.1399  0.3557  0.3401
 2425SOL    HW2 9698   0.491   3.922   4.218 -1.4233 -0.9354 -2.5145
 2425SOL    HW3 9699   0.426   4.059   4.215  0.6742  0.1553  0.1396
 2425SOL    MW4 9700   0.422   3.973   4.231 -0.2018  0.1589 -0.0630
 2426SOL     OW 9701   0.677   2.035   4.219  0.1114 -0.8057  0.1948
 2426SOL    HW2 9702   0.613   1.973   4.184  0.3195 -2.1110  2.0571
 2426SOL    HW3 9703   0.761   2.007   4.181 -0.1383 -0.2201 -0.8007
 2426SOL    MW4 9704   0.680   2.023   4.209  0.1059 -0.9007  0.3092
 2427SOL     OW 9705   3.255   0.956   4.828  0.3163 -0.4000  0.0496
 2427SOL    HW2 9706   3.286   0.930   4.741 -1.0425  0.2606 -0.6442
 2427SOL    HW3 9707   3.167   0.920   4.834  0.2398 -0.0759  0.9905
 2427SOL    MW4 9708   3.248   0.948   4.817  0.1269 -0.2701  0.0822
 2428SOL     OW 9709   0.028   3.228   4.306 -0.2855 -0.1436 -0.5270
 2428SOL    HW2 9710  -0.052   3.188   4.273 -0.3497  0.6705 -1.3714
 2428SOL    HW3 9711   0.028   3.316   4.269 -0.0271  0.5667  1.1132
 2428SOL    MW4 9712   0.017   3.234   4.297 -0.2599  0.0576 -0.4220
 2429SOL     OW 9713   0.449   4.242   4.175  0.3007  0.4699  0.4711
 2429SOL    HW2 9714   0.436   4.246   4.080  0.1769  1.5415  0.5262
 2429SOL    HW3 9715   0.535   4.283   4.189  1.0711 -1.1897  0.6687
 2429SOL    MW4 9716   0.459   4.248   4.164  0.3860  0.3923  0.5045
 2430SOL     OW 9717   0.240   3.646   4.273  0.0925  0.6690  0.3463
 2430SOL    HW2 9718   0.289   3.581   4.222 -1.8706 -1.0223  0.5270
 2430SOL    HW3 9719   0.279   3.643   4.360 -0.5333 -0.9176  0.5859
 2430SOL    MW4 9720   0.252   3.637   4.278 -0.2491  0.2365  0.4017
 2431SOL     OW 9721   0.028   4.287   4.166  0.1175 -0.4429  0.1553
 2431SOL    HW2 9722   0.034   4.199   4.205 -1.6151 -0.7381 -0.2114
 2431SOL    HW3 9723   0.031   4.271   4.072  0.9891  0.0043  0.1011
 2431SOL    MW4 9724   0.029   4.273   4.159  0.0039 -0.4228  0.0997
 2432SOL     OW 9725   1.392   1.680   4.130  0.3421  0.1197  0.6394
 2432SOL    HW2 9726   1.384   1.653   4.221 -2.1659 -0.3935  0.3189
 2432SOL    HW3 9727   1.404   1.775   4.133 -2.6463  0.5246  1.4657
 2432SOL    MW4 9728   1.392   1.689   4.142 -0.3831  0.1054  0.7061
 2433SOL     OW 9729   0.899   2.340   4.497 -0.0917 -0.0656  0.3249
 2433SOL    HW2 9730   0.893   2.429   4.532  0.0481  0.2127 -0.3415
 2433SOL    HW3 9731   0.987   2.311   4.521  0.7783  0.8943 -1.5356
 2433SOL    MW4 9732   0.910   2.348   4.504  0.0415  0.0978 -0.0085
 2434SOL     OW 9733   4.447   0.883   4.513  0.2554 -0.6593  0.7147
 2434SOL    HW2 9734   4.442   0.977   4.492 -0.2266 -1.3309 -2.5169
 2434SOL    HW3 9735   4.541   0.865   4.520  0.6526 -0.8059 -3.4851
 2434SOL    MW4 9736   4.459   0.893   4.511  0.2442 -0.7672 -0.2658
 2435SOL     OW 9737   0.671   0.001   4.191 -0.5022 -0.2335  0.2983
 2435SOL    HW2 9738   0.691  -0.019   4.100 -0.8721  0.2078  0.1171
 2435SOL    HW3 9739   0.751   0.038   4.226 -0.6436  0.4684 -0.1098
 2435SOL    MW4 9740   0.684   0.003   4.184 -0.5697 -0.0827  0.2205
 2436SOL     OW 9741   3.986   1.402   4.547 -0.2376  0.2223  0.1550
 2436SOL    HW2 9742   4.026   1.488   4.546 -0.3288  0.2619 -1.7417
 2436SOL    HW3 9743   4.060   1.341   4.547 -0.1729  0.2994 -0.6699
 2436SOL    MW4 9744   4.001   1.405   4.547 -0.2411  0.2377 -0.2041
 2437SOL     OW 9745   1.124   4.604   4.149  0.4951 -0.4825  0.2770
 2437SOL    HW2 9746   1.109   4.633   4.059 -1.2826  0.6376  0.8965
 2437SOL    HW3 9747   1.207   4.644   4.175  0.6498 -0.2239 -0.6324
 2437SOL    MW4 9748   1.133   4.613   4.141  0.2809 -0.3006  0.2388
 2438SOL     OW 9749   0.653   0.741   4.101 -0.0943 -0.3545  0.3694
 2438SOL    HW2 9750   0.725   0.800   4.126 -0.3984 -0.2895  1.1239
 2438SOL    HW3 9751   0.643   0.754   4.007 -0.3398  1.0295  0.5647
 2438SOL    MW4 9752   0.661   0.751   4.092 -0.1668 -0.1633  0.4947
 2439SOL     OW 9753   4.332   4.288   4.533 -0.1853 -0.1719 -0.1288
 2439SOL    HW2 9754   4.392   4.355   4.565 -0.5778  0.4907 -0.7400
 2439SOL    HW3 9755   4.346   4.213   4.590 -0.3975  0.7494  1.1591
 2439SOL    MW4 9756   4.342   4.287   4.544 -0.2651  0.0371 -0.0395
 2440SOL     OW 9757   4.393   3.962   4.620  0.3515  0.1096 -0.0510
 2440SOL    HW2 9758   4.306   3.945   4.584  0.0635  1.9227 -0.2421
 2440SOL    HW3 9759   4.454   3.931   4.553 -0.1416 -0.3611 -0.2829
 2440SOL    MW4 9760   4.390   3.956   4.607  0.2485  0.2867 -0.1068
 2441SOL     OW 9761   0.050   2.454   4.250 -0.0911 -0.5396  0.2228
 2441SOL    HW2 9762   0.115   2.416   4.192  0.3456 -1.4535  1.3027
 2441SOL    HW3 9763   0.059   2.549   4.237  1.6809 -0.6463  0.6229
 2441SOL    MW4 9764   0.060   2.462   4.240  0.2003 -0.6743  0.4181
 2442SOL     OW 9765   0.183   1.247   4.251  0.2035 -0.1366  0.3638
 2442SOL    HW2 9766   0.104   1.198   4.226 -1.4241  1.8368  1.4604
 2442SOL    HW3 9767   0.217   1.201   4.327 -0.5948 -0.3201  0.6162
 2442SOL    MW4 9768   0.177   1.235   4.258 -0.1165  0.0995  0.5418
 2443SOL     OW 9769   4.342   1.784   4.587 -0.1697  0.5094  0.2738
 2443SOL    HW2 9770   4.409   1.774   4.655  0.7677  1.0502 -0.5441
 2443SOL    HW3 9771   4.385   1.752   4.507 -0.8098  1.1046 -0.3099
 2443SOL    MW4 9772   4.357   1.778   4.585 -0.1305  0.6593  0.0889
 2444SOL     OW 9773   0.020   1.937   4.172  0.5945  0.5552 -0.4896
 2444SOL    HW2 9774   0.014   1.860   4.229  0.3394  1.2356  0.4107
 2444SOL    HW3 9775  -0.060   1.987   4.190  0.5803  0.8572 -1.3389
 2444SOL    MW4 9776   0.009   1.933   4.182  0.5590  0.6848 -0.4829
 2445SOL     OW 9777   0.494   1.866   4.107  0.0546  0.4934 -0.0547
 2445SOL    HW2 9778   0.449   1.786   4.132 -0.2413  0.7676  0.2991
 2445SOL    HW3 9779   0.487   1.869   4.011  1.7756 -0.9115 -0.2517
 2445SOL    MW4 9780   0.487   1.856   4.097  0.2427  0.3442 -0.0340
 2446SOL     OW 9781   0.698   2.297   4.125 -0.1130 -0.2786  0.2713
 2446SOL    HW2 9782   0.671   2.210   4.154  0.7111 -0.4546  0.5305
 2446SOL    HW3 9783   0.676   2.300   4.032 -1.7966 -0.0992  0.6502
 2446SOL    MW4 9784   0.692   2.286   4.117 -0.2264 -0.2782  0.3555
 2447SOL     OW 9785   3.985   2.127   4.610  0.3621 -0.3283  0.1449
 2447SOL    HW2 9786   3.949   2.046   4.646 -0.5140 -0.6315 -1.3447
 2447SOL    HW3 9787   4.071   2.103   4.578 -0.0198 -0.7611 -0.5718
 2447SOL    MW4 9788   3.991   2.113   4.610  0.1961 -0.4254 -0.1462
 2448SOL     OW 9789   0.828   0.027   4.535  0.1548  0.0539  0.0918
 2448SOL    HW2 9790   0.784   0.106   4.566 -1.6236 -0.7035 -0.4724
 2448SOL    HW3 9791   0.791  -0.044   4.588  0.7760 -0.5883 -0.3201
 2448SOL    MW4 9792   0.817   0.028   4.546  0.0021 -0.1307 -0.0370
 2449SOL     OW 9793   4.242   2.823   4.508  0.6235 -0.3893 -0.1430
 2449SOL    HW2 9794   4.156   2.787   4.532  1.0991 -0.8784  0.8484
 2449SOL    HW3 9795   4.261   2.887   4.576  1.5277 -1.0442  0.2174
 2449SOL    MW4 9796   4.233   2.827   4.520  0.8055 -0.5403  0.0354
 2450SOL     OW 9797   0.247   3.124   4.144 -0.1134 -0.1537  0.1398
 2450SOL    HW2 9798   0.270   3.037   4.176  0.6909  0.3464  0.9523
 2450SOL    HW3 9799   0.170   3.149   4.196 -0.8734 -0.7228 -0.6951
 2450SOL    MW4 9800   0.240   3.116   4.155 -0.1076 -0.1628  0.1369
 2451SOL     OW 9801   3.154   4.311   4.566 -0.2036 -0.3587  0.2137
 2451SOL    HW2 9802   3.241   4.346   4.550 -0.4895  0.6288  0.7960
 2451SOL    HW3 9803   3.163   4.216   4.552  1.3473 -0.4725  1.8752
 2451SOL    MW4 9804   3.166   4.303   4.562 -0.0367 -0.2434  0.5097
 2452SOL     OW 9805   0.275   0.437   4.568  0.1144 -0.2221 -0.6425
 2452SOL    HW2 9806   0.320   0.520   4.583 -1.8830  0.6163  0.8555
 2452SOL    HW3 9807   0.245   0.442   4.477  0.4855  0.4634 -0.7275
 2452SOL    MW4 9808   0.277   0.448   4.558 -0.1001 -0.0210 -0.4561
 2453SOL     OW 9809   0.896   3.468   4.147 -0.2785 -0.1418  0.3126
 2453SOL    HW2 9810   0.892   3.483   4.053  0.9396 -1.9458 -0.0690
 2453SOL    HW3 9811   0.898   3.372   4.155 -0.8692 -0.0121  2.1905
 2453SOL    MW4 9812   0.896   3.457   4.136 -0.1958 -0.3627  0.5100
 2454SOL     OW 9813   0.615   3.865   3.899  0.4353 -0.5997 -0.5218
 2454SOL    HW2 9814   0.692   3.915   3.870 -0.6184  0.8563 -0.8368
 2454SOL    HW3 9815   0.621   3.866   3.995  0.3167  0.3096 -0.5179
 2454SOL    MW4 9816   0.626   3.871   3.908  0.2806 -0.2877 -0.5628
 2455SOL     OW 9817   1.131   0.380   4.484 -0.4517 -0.0279 -0.0934
 2455SOL    HW2 9818   1.040   0.392   4.513 -0.7101  1.2892 -1.3849
 2455SOL    HW3 9819   1.149   0.287   4.500 -2.3055 -0.5014 -0.5830
 2455SOL    MW4 9820   1.121   0.369   4.490 -0.7303  0.0834 -0.3284
 2456SOL     OW 9821   1.313   0.102   4.281  0.1183 -0.4470 -0.1786
 2456SOL    HW2 9822   1.336   0.192   4.261  2.1372 -0.8097  0.4390
 2456SOL    HW3 9823   1.254   0.108   4.356 -1.3164  0.4489 -1.3459
 2456SOL    MW4 9824   1.308   0.115   4.288  0.1954 -0.3767 -0.2511
 2457SOL     OW 9825   1.423   3.355   4.833  0.7046 -0.0673 -0.2262
 2457SOL    HW2 9826   1.455   3.354   4.923  2.2167 -3.2606 -0.7409
 2457SOL    HW3 9827   1.489   3.403   4.784  1.8468 -1.6329 -0.2619
 2457SOL    MW4 9828   1.436   3.361   4.838  1.0548 -0.6952 -0.2988
 2458SOL     OW 9829   2.824   4.581   4.718 -0.0834  0.0402 -0.6802
 2458SOL    HW2 9830   2.853   4.502   4.763 -2.7500 -0.1930  0.7898
 2458SOL    HW3 9831   2.884   4.650   4.748  0.7959 -0.9673 -0.1240
 2458SOL    MW4 9832   2.835   4.580   4.728 -0.3192 -0.1235 -0.4128
 2459SOL     OW 9833   0.903   0.393   4.183  0.8453  0.0989  0.5065
 2459SOL    HW2 9834   0.907   0.309   4.230  0.6037  0.1265  0.5760
 2459SOL    HW3 9835   0.820   0.432   4.210 -0.6489 -1.1288 -2.0526
 2459SOL    MW4 9836   0.893   0.387   4.193  0.6163 -0.0594  0.1780
 2460SOL     OW 9837   0.899   4.230   4.188 -0.1388 -0.0161 -0.0387
 2460SOL    HW2 9838   0.813   4.270   4.201 -0.2488  0.1316 -1.1822
 2460SOL    HW3 9839   0.894   4.146   4.234 -0.7316  0.2023  0.2957
 2460SOL    MW4 9840   0.887   4.224   4.195 -0.2315  0.0322 -0.1454
 2461SOL     OW 9841   1.540   1.322   4.262  0.3626 -0.6771 -0.0233
 2461SOL    HW2 9842   1.549   1.302   4.355 -2.2540  0.6080  0.5543
 2461SOL    HW3 9843   1.473   1.262   4.230  1.6548 -1.5069 -1.2549
 2461SOL    MW4 9844   1.532   1.312   4.270  0.1879 -0.6170 -0.1096
 2462SOL     OW 9845   3.123   3.023   4.596 -0.2391  0.0007 -0.5057
 2462SOL    HW2 9846   3.099   3.115   4.590 -1.7909 -0.2081  1.6845
 2462SOL    HW3 9847   3.217   3.023   4.613 -0.3276  1.1953 -0.0107
 2462SOL    MW4 9848   3.132   3.035   4.597 -0.4555  0.1308 -0.1514
 2463SOL     OW 9849   1.050   4.345   4.712 -0.1712 -0.0810 -0.3186
 2463SOL    HW2 9850   1.089   4.408   4.652  0.8283  1.5116  1.9247
 2463SOL    HW3 9851   1.007   4.398   4.779 -0.2367 -1.7679  1.0162
 2463SOL    MW4 9852   1.050   4.360   4.713 -0.0479 -0.0934  0.1535
 2464SOL     OW 9853   3.933   3.118   4.658  0.1703 -0.0461 -0.2744
 2464SOL    HW2 9854   3.980   3.046   4.700  1.5256  0.5010 -0.8182
 2464SOL    HW3 9855   3.999   3.162   4.605 -1.1604  0.2052 -1.7791
 2464SOL    MW4 9856   3.948   3.114   4.657  0.1736  0.0592 -0.5447
 2465SOL     OW 9857   1.348   3.236   4.187 -0.3863  0.5261 -0.4069
 2465SOL    HW2 9858   1.339   3.241   4.282  1.1343  1.8347 -0.3130
 2465SOL    HW3 9859   1.326   3.324   4.156  0.0037  0.3606 -1.1800
 2465SOL    MW4 9860   1.344   3.249   4.196 -0.1342  0.6769 -0.4965
 2466SOL     OW 9861   2.919   3.634   4.252 -0.1549 -0.2806  0.0428
 2466SOL    HW2 9862   2.913   3.610   4.344  1.2969  0.5040  0.3569
 2466SOL    HW3 9863   3.001   3.595   4.222 -0.5255 -0.3747 -0.8725
 2466SOL    MW4 9864   2.929   3.625   4.260 -0.0123 -0.1895 -0.0365
 2467SOL     OW 9865   2.921   4.459   4.474  0.3759  0.4812  0.0083
 2467SOL    HW2 9866   2.916   4.504   4.558 -0.3073 -1.6511  1.1622
 2467SOL    HW3 9867   3.006   4.414   4.476  0.9156  1.4355 -0.9868
 2467SOL    MW4 9868   2.932   4.459   4.486  0.3570  0.3258  0.0293
 2468SOL     OW 9869   1.374   1.618   4.406  0.4959  0.0343 -0.1488
 2468SOL    HW2 9870   1.462   1.594   4.435  0.3595  1.0231  1.1477
 2468SOL    HW3 9871   1.349   1.691   4.464 -1.1008 -0.1261 -0.6129
 2468SOL    MW4 9872   1.382   1.624   4.418  0.2673  0.1436 -0.0390
 2469SOL     OW 9873   0.848   1.665   4.262  0.2527 -0.3130 -0.6150
 2469SOL    HW2 9874   0.927   1.638   4.215  0.2398  0.4164 -1.0774
 2469SOL    HW3 9875   0.859   1.631   4.351  1.7333  0.9930 -0.2911
 2469SOL    MW4 9876   0.860   1.657   4.267  0.4463 -0.0444 -0.6333
 2470SOL     OW 9877   1.852   3.358   4.514  0.1120 -0.1481 -0.2532
 2470SOL    HW2 9878   1.929   3.414   4.525  1.1286 -1.7010  0.6478
 2470SOL    HW3 9879   1.787   3.396   4.573  0.6152  0.4037 -0.0426
 2470SOL    MW4 9880   1.853   3.371   4.523  0.3125 -0.2802 -0.1066
 2471SOL     OW 9881   2.757   2.113   4.543 -0.1058  0.7080 -0.0065
 2471SOL    HW2 9882   2.802   2.108   4.459 -0.3590  1.1033 -0.1647
 2471SOL    HW3 9883   2.735   2.205   4.554  0.9343  0.8363  1.0315
 2471SOL    MW4 9884   2.760   2.124   4.533 -0.0020  0.7771  0.1095
 2472SOL     OW 9885   1.131   2.801   4.190  0.1069  0.4311  0.0954
 2472SOL    HW2 9886   1.136   2.891   4.156 -1.7590  0.6021  0.2381
 2472SOL    HW3 9887   1.131   2.812   4.285 -0.0435  0.2751  0.1138
 2472SOL    MW4 9888   1.132   2.815   4.198 -0.1591  0.4331  0.1167
 2473SOL     OW 9889   3.387   3.629   4.188  0.0309 -0.8550 -0.2398
 2473SOL    HW2 9890   3.370   3.718   4.157 -0.1172 -0.6098  0.5177
 2473SOL    HW3 9891   3.307   3.581   4.168 -0.9372 -0.1458  1.7120
 2473SOL    MW4 9892   3.374   3.635   4.182 -0.1164 -0.7290  0.1177
 2474SOL     OW 9893   4.044   1.168   4.217  0.2191  0.5373  0.0265
 2474SOL    HW2 9894   3.971   1.209   4.263  0.4376  0.9930 -0.0318
 2474SOL    HW3 9895   4.027   1.074   4.225  0.3839  0.6037  1.2248
 2474SOL    MW4 9896   4.032   1.161   4.224  0.2697  0.6062  0.1769
 2475SOL     OW 9897   1.120   3.084   4.137 -0.3605 -0.1113  0.5978
 2475SOL    HW2 9898   1.104   3.085   4.043  2.3476 -0.6677  0.1010
 2475SOL    HW3 9899   1.202   3.132   4.148 -0.3290 -0.5815  2.6219
 2475SOL    MW4 9900   1.129   3.091   4.126  0.0009 -0.2467  0.7993
 2476SOL     OW 9901   0.619   1.580   4.162 -0.0687  0.2633 -0.3548
 2476SOL    HW2 9902   0.637   1.568   4.069 -2.4994  0.7957 -0.9272
 2476SOL    HW3 9903   0.702   1.610   4.199  0.9681 -0.1302 -2.3082
 2476SOL    MW4 9904   0.632   1.582   4.154 -0.2526  0.2816 -0.6881
 2477SOL     OW 9905   4.010   2.690   4.665 -0.1483  0.0325 -0.3778
 2477SOL    HW2 9906   4.030   2.688   4.759  1.5033  0.0416 -0.7198
 2477SOL    HW3 9907   4.018   2.599   4.637  0.3574  0.1761 -0.7085
 2477SOL    MW4 9908   4.014   2.677   4.674  0.1363  0.0526 -0.4666
 2478SOL     OW 9909   0.751   2.797   4.664 -0.0423  0.0135 -0.3729
 2478SOL    HW2 9910   0.735   2.857   4.591 -1.3937  0.7499  0.4922
 2478SOL    HW3 9911   0.770   2.854   4.738 -1.2438 -0.6115  0.4403
 2478SOL    MW4 9912   0.751   2.812   4.664 -0.3791  0.0282 -0.1515
 2479SOL     OW 9913   0.640   3.563   4.252 -0.2790 -0.3282  0.2846
 2479SOL    HW2 9914   0.708   3.522   4.199  1.0104 -0.8791  2.2892
 2479SOL    HW3 9915   0.558   3.540   4.209  0.7551 -0.1157 -1.8766
 2479SOL    MW4 9916   0.638   3.555   4.239  0.0276 -0.3728  0.2639
 2480SOL     OW 9917   1.124   2.823   4.462 -0.2818  0.3143  0.4340
 2480SOL    HW2 9918   1.200   2.803   4.516  0.2499 -0.4563 -0.5713
 2480SOL    HW3 9919   1.092   2.906   4.495 -0.5826 -0.6272  2.6132
 2480SOL    MW4 9920   1.130   2.831   4.474 -0.2513  0.0884  0.5889
 2481SOL     OW 9921   0.047   3.212   4.587  0.4655 -0.2193 -0.6571
 2481SOL    HW2 9922   0.035   3.303   4.612  1.1850  0.1248 -1.5467
 2481SOL    HW3 9923   0.008   3.206   4.500 -2.8772 -1.6258  0.8450
 2481SOL    MW4 9924   0.040   3.223   4.579  0.1194 -0.3594 -0.5763
 2482SOL     OW 9925   1.582   0.577   4.464  0.1006 -0.7903 -0.0390
 2482SOL    HW2 9926   1.502   0.568   4.517  0.6634 -1.4622  0.6996
 2482SOL    HW3 9927   1.649   0.604   4.526  0.6730 -1.1699 -0.4886
 2482SOL    MW4 9928   1.580   0.580   4.479  0.2504 -0.9290 -0.0008
 2483SOL     OW 9929   2.419   1.120   4.499  0.1509 -0.5599 -0.3344
 2483SOL    HW2 9930   2.350   1.095   4.560  1.1520 -2.1409  0.1978
 2483SOL    HW3 9931   2.460   1.037   4.474  1.5075  0.3022 -1.0512
 2483SOL    MW4 9932   2.415   1.106   4.504  0.4619 -0.6548 -0.3587
 2484SOL     OW 9933   1.370   0.340   4.133  0.3139 -0.4798  0.2882
 2484SOL    HW2 9934   1.293   0.390   4.161 -0.4043 -1.6441  0.4289
 2484SOL    HW3 9935   1.444   0.399   4.149 -0.6734  1.3558 -1.4957
 2484SOL    MW4 9936   1.369   0.355   4.138  0.0889 -0.3912  0.0714
 2485SOL     OW 9937   1.465   4.500   4.543 -0.0324  0.0765  0.2369
 2485SOL    HW2 9938   1.509   4.491   4.459  1.0352 -1.3481  0.9189
 2485SOL    HW3 9939   1.499   4.582   4.579  0.9808 -0.2920  0.1301
 2485SOL    MW4 9940   1.476   4.510   4.537  0.2421 -0.1600  0.3128
 2486SOL     OW 9941   1.543   0.768   4.134  0.2882 -0.1161  0.0255
 2486SOL    HW2 9942   1.552   0.680   4.172 -0.1014 -0.5795 -0.9339
 2486SOL    HW3 9943   1.527   0.752   4.041 -1.0648  0.9316  0.0577
 2486SOL    MW4 9944   1.542   0.754   4.126  0.0583 -0.0390 -0.0969
 2487SOL     OW 9945   0.301   3.596   4.544 -0.4754 -0.0752 -0.1489
 2487SOL    HW2 9946   0.347   3.515   4.521 -1.0117  0.1122 -2.0028
 2487SOL    HW3 9947   0.210   3.569   4.555 -0.6555  0.2723 -0.7747
 2487SOL    MW4 9948   0.295   3.581   4.542 -0.5699 -0.0046 -0.4761
 2488SOL     OW 9949   0.096   3.862   4.452  0.0273 -0.2238 -0.1660
 2488SOL    HW2 9950   0.106   3.780   4.402  0.7541 -0.1610 -0.1275
 2488SOL    HW3 9951   0.082   3.929   4.385  1.4591 -0.0690 -0.3214
 2488SOL    MW4 9952   0.096   3.860   4.436  0.3121 -0.1951 -0.1815
 2489SOL     OW 9953   1.782   1.154   4.135  0.4264 -0.1592  0.0486
 2489SOL    HW2 9954   1.722   1.212   4.181 -0.1478 -1.4951  1.0316
 2489SOL    HW3 9955   1.869   1.190   4.152  0.0701  0.4638  0.5585
 2489SOL    MW4 9956   1.786   1.166   4.143  0.3036 -0.2532  0.2456
 2490SOL     OW 9957   2.266   1.730   4.218  0.0529 -0.7260  0.2356
 2490SOL    HW2 9958   2.342   1.696   4.170  0.0056 -2.4646  1.3392
 2490SOL    HW3 9959   2.295   1.735   4.309 -0.5919  0.3231  0.3874
 2490SOL    MW4 9960   2.280   1.726   4.223 -0.0384 -0.8170  0.4012
 2491SOL     OW 9961   1.129   1.443   4.420 -0.1339 -0.4534 -0.1255
 2491SOL    HW2 9962   1.223   1.451   4.404 -0.0417 -0.6270  0.3298
 2491SOL    HW3 9963   1.106   1.357   4.384  0.3039 -1.3676  1.7559
 2491SOL    MW4 9964   1.139   1.433   4.413 -0.0640 -0.5969  0.1828
 2492SOL     OW 9965   1.178   2.300   4.649  0.1927  0.6827 -0.4740
 2492SOL    HW2 9966   1.259   2.334   4.612  0.4315  0.8988  0.2254
 2492SOL    HW3 9967   1.141   2.374   4.699  0.3587  0.1316  0.4801
 2492SOL    MW4 9968   1.183   2.315   4.651  0.2461  0.6385 -0.2558
 2493SOL     OW 9969   3.344   2.039   4.282  0.5069 -0.8616  0.4927
 2493SOL    HW2 9970   3.422   2.002   4.240  0.0996 -1.6875  0.4433
 2493SOL    HW3 9971   3.362   2.035   4.376  0.6293 -0.8251  0.4698
 2493SOL    MW4 9972   3.356   2.034   4.289  0.4693 -0.9658  0.4832
 2494SOL     OW 9973   1.588   2.331   4.179 -0.3490  0.1765  0.0379
 2494SOL    HW2 9974   1.651   2.394   4.213  1.6958 -2.6401  1.6804
 2494SOL    HW3 9975   1.596   2.337   4.084  3.1431 -0.7782  0.2214
 2494SOL    MW4 9976   1.597   2.340   4.171  0.3815 -0.3211  0.2788
 2495SOL     OW 9977   1.129   3.338   4.804  0.3099 -0.2935 -0.2033
 2495SOL    HW2 9978   1.218   3.337   4.841  0.4051 -1.0952 -0.4424
 2495SOL    HW3 9979   1.107   3.431   4.796  0.8385 -0.1013  0.5570
 2495SOL    MW4 9980   1.138   3.350   4.808  0.3922 -0.3739 -0.1345
 2496SOL     OW 9981   1.778   2.747   4.141  0.1654  0.2334  0.0347
 2496SOL    HW2 9982   1.848   2.799   4.181 -0.0313  0.1961  0.4286
 2496SOL    HW3 9983   1.699   2.770   4.190  0.0588 -0.3680  0.1577
 2496SOL    MW4 9984   1.777   2.757   4.153  0.1253  0.1491  0.1029
 2497SOL     OW 9985   2.531   2.327   4.131 -0.4181  0.0909  0.0490
 2497SOL    HW2 9986   2.517   2.237   4.161 -0.0517 -0.0833 -0.2941
 2497SOL    HW3 9987   2.534   2.320   4.036  1.0162  0.2552  0.0647
 2497SOL    MW4 9988   2.530   2.314   4.123 -0.1805  0.0896  0.0058
 2498SOL     OW 9989   1.780   3.258   4.269  0.2387 -0.3142  0.2811
 2498SOL    HW2 9990   1.859   3.215   4.237 -0.5561 -1.3193 -0.3372
 2498SOL    HW3 9991   1.802   3.284   4.359  1.1880 -0.7790  0.1908
 2498SOL    MW4 9992   1.794   3.256   4.277  0.2591 -0.5081  0.1876
 2499SOL     OW 9993   2.294   2.235   4.585 -0.1456  0.4505 -0.3396
 2499SOL    HW2 9994   2.199   2.249   4.587 -0.1578  0.2995  0.3091
 2499SOL    HW3 9995   2.331   2.324   4.583 -0.3026  0.5083 -0.6763
 2499SOL    MW4 9996   2.286   2.249   4.585 -0.1679  0.4382 -0.2984
 2500SOL     OW 9997   1.577   3.616   4.244 -0.9729 -0.1408  0.3881
 2500SOL    HW2 9998   1.655   3.579   4.202  0.0589  0.6661  1.5319
 2500SOL    HW3 9999   1.503   3.580   4.195  0.1046 -1.3239 -0.3958
 2500SOL    MW410000   1.578   3.606   4.232 -0.6946 -0.1904  0.4356
 2501SOL     OW10001   1.085   1.200   4.296 -0.3184  0.0833 -0.1432
 2501SOL    HW210002   1.027   1.177   4.223 -1.7588 -2.2032  1.6295
 2501SOL    HW310003   1.173   1.181   4.263 -0.8694 -0.0649 -1.5747
 2501SOL    MW410004   1.089   1.194   4.282 -0.5812 -0.2379 -0.0982
 2502SOL     OW10005   0.654   3.835   4.194  0.7225 -0.2542  0.0142
 2502SOL    HW210006   0.656   3.746   4.229  1.1676 -0.5516 -0.7572
 2502SOL    HW310007   0.723   3.881   4.241  1.6922 -0.8027 -0.8395
 2502SOL    MW410008   0.663   3.830   4.205  0.9092 -0.3658 -0.2002
 2503SOL     OW10009   0.091   1.140   4.716  0.0510  0.2153 -0.2889
 2503SOL    HW210010   0.111   1.046   4.722 -0.2939  0.2060  0.7201
 2503SOL    HW310011   0.022   1.145   4.649  0.0582 -0.2529 -0.3338
 2503SOL    MW410012   0.085   1.128   4.708  0.0064  0.1523 -0.1617
 2504SOL     OW10013   1.195   0.820   4.459 -0.2609 -0.2051 -0.7526
 2504SOL    HW210014   1.215   0.895   4.516 -0.6961 -0.2888 -0.4906
 2504SOL    HW310015   1.231   0.845   4.374  0.2809 -0.0231 -0.4754
 2504SOL    MW410016   1.202   0.833   4.455 -0.2468 -0.1921 -0.6815
 2505SOL     OW10017   1.349   4.266   4.202 -0.2423 -0.1259 -0.3509
 2505SOL    HW210018   1.270   4.308   4.234 -1.0242 -1.5286 -0.3805
 2505SOL    HW310019   1.349   4.283   4.108  0.4618  1.4183 -0.0848
 2505SOL    MW410020   1.339   4.274   4.194 -0.2526 -0.1073 -0.3197
 2506SOL     OW10021   2.188   0.145   4.289 -0.5118 -0.2502  0.3098
 2506SOL    HW210022   2.156   0.135   4.378  0.8132 -1.9967  0.6125
 2506SOL    HW310023   2.116   0.111   4.234 -0.8843 -0.1973  0.7636
 2506SOL    MW410024   2.174   0.139   4.293 -0.3861 -0.4737  0.4096
 2507SOL     OW10025   2.000   3.912   4.132 -0.2159 -0.0316 -0.2726
 2507SOL    HW210026   1.996   3.915   4.037 -0.4683 -1.0126 -0.2985
 2507SOL    HW310027   1.917   3.949   4.162 -0.5048 -0.5275 -0.4530
 2507SOL    MW410028   1.989   3.917   4.124 -0.2874 -0.2265 -0.2998
 2508SOL     OW10029   2.662   0.344   4.073 -0.1538  0.2572  0.3550
 2508SOL    HW210030   2.657   0.336   3.978  0.2622 -2.6208  0.5216
 2508SOL    HW310031   2.745   0.388   4.090  0.6324 -0.8607 -0.5604
 2508SOL    MW410032   2.672   0.349   4.063  0.0048 -0.2700  0.2562
 2509SOL     OW10033   0.844   4.441   4.891  0.7845 -0.0692 -0.2094
 2509SOL    HW210034   0.777   4.456   4.824  2.9018  0.5135 -2.2499
 2509SOL    HW310035   0.809   4.482   4.970 -0.9585  0.8092 -1.4137
 2509SOL    MW410036   0.831   4.448   4.893  0.8339  0.1235 -0.6375
 2510SOL     OW10037   1.562   2.841   4.275 -0.0856 -0.0444  0.7162
 2510SOL    HW210038   1.572   2.864   4.367 -0.2144 -2.0062  1.2587
 2510SOL    HW310039   1.580   2.922   4.227 -2.7235  1.7184  2.5512
 2510SOL    MW410040   1.566   2.854   4.281 -0.4506 -0.0707  1.0299
 2511SOL     OW10041   1.761   0.897   4.230  0.1372 -0.0820  0.1910
 2511SOL    HW210042   1.682   0.855   4.194 -0.1640  1.2287 -0.7085
 2511SOL    HW310043   1.748   0.990   4.213  0.3053  0.5335  3.1310
 2511SOL    MW410044   1.749   0.904   4.223  0.1196  0.1721  0.4602
 2512SOL     OW10045   0.769   1.308   4.514  0.2683 -0.0812 -0.0458
 2512SOL    HW210046   0.842   1.250   4.532  0.2055  0.1547  1.0421
 2512SOL    HW310047   0.797   1.393   4.549 -0.5040  0.0171  0.3420
 2512SOL    MW410048   0.782   1.312   4.521  0.1581 -0.0371  0.1489
 2513SOL     OW10049   2.006   1.252   4.254  0.3038 -0.3069  0.1076
 2513SOL    HW210050   2.035   1.343   4.253  1.1506 -0.5630  0.2214
 2513SOL    HW310051   2.081   1.203   4.218 -0.2204 -0.9305 -0.1485
 2513SOL    MW410052   2.020   1.257   4.249  0.3463 -0.4230  0.0888
 2514SOL     OW10053   2.066   1.537   4.205 -0.5063 -0.2545  0.3399
 2514SOL    HW210054   2.143   1.593   4.217  0.0192 -0.9348  0.1723
 2514SOL    HW310055   2.047   1.541   4.111  0.3243 -1.3815  0.1144
 2514SOL    MW410056   2.074   1.545   4.194 -0.3274 -0.4929  0.2881
 2515SOL     OW10057   1.374   2.734   4.593 -0.0549  0.0360  0.2553
 2515SOL    HW210058   1.358   2.725   4.687  0.9461  0.0037  0.4302
 2515SOL    HW310059   1.395   2.645   4.563  0.7031  0.2287  0.2112
 2515SOL    MW410060   1.375   2.721   4.601  0.1772  0.0571  0.2726
 2516SOL     OW10061   1.844   1.689   4.265  0.6399  0.0012 -0.2573
 2516SOL    HW210062   1.919   1.630   4.266  0.7964  0.1987  0.3905
 2516SOL    HW310063   1.779   1.645   4.211 -0.2841 -2.0589  2.4241
 2516SOL    MW410064   1.845   1.676   4.258  0.5387 -0.2446  0.1820
 2517SOL     OW10065   1.828   1.963   4.131  0.2914 -0.1266  0.5322
 2517SOL    HW210066   1.834   1.874   4.165 -1.1405 -0.0892  0.9173
 2517SOL    HW310067   1.753   2.001   4.177 -0.1170  0.7425 -0.8378
 2517SOL    MW410068   1.819   1.956   4.142  0.0486 -0.0070  0.4022
 2518SOL     OW10069   0.877   1.148   4.106 -0.1739 -0.2141 -0.5370
 2518SOL    HW210070   0.884   1.150   4.011  0.2831 -0.2550 -0.5040
 2518SOL    HW310071   0.821   1.223   4.128  1.6067  1.1651 -0.6746
 2518SOL    MW410072   0.870   1.158   4.097  0.1213 -0.0375 -0.5508
 2519SOL     OW10073   1.447   3.128   4.686 -0.1241  0.4716  0.2452
 2519SOL    HW210074   1.394   3.078   4.748 -0.5023  0.3465 -0.1719
 2519SOL    HW310075   1.460   3.213   4.728  2.3186 -0.6584  1.9020
 2519SOL    MW410076   1.442   3.133   4.699  0.1483  0.3060  0.4088
 2520SOL     OW10077   1.340   2.419   4.274  0.4296  0.5450  0.4150
 2520SOL    HW210078   1.413   2.377   4.228 -0.8906 -0.1019 -1.1640
 2520SOL    HW310079   1.343   2.510   4.246  0.3420  0.4130 -0.0235
 2520SOL    MW410080   1.350   2.425   4.264  0.2439  0.4422  0.1488
 2521SOL     OW10081   2.876   4.079   4.660 -0.0464  0.0986 -0.0128
 2521SOL    HW210082   2.824   4.023   4.717  0.1327  0.3907  0.4430
 2521SOL    HW310083   2.814   4.110   4.594 -0.0615 -0.9297 -0.4829
 2521SOL    MW410084   2.861   4.076   4.659 -0.0248  0.0015 -0.0147
 2522SOL     OW10085   2.245   3.344   4.515  0.1891  0.0852  0.2180
 2522SOL    HW210086   2.179   3.283   4.546 -0.4191  0.7893  0.3329
 2522SOL    HW310087   2.257   3.323   4.422  0.3811 -0.5602  0.3911
 2522SOL    MW410088   2.238   3.333   4.507  0.1342  0.0929  0.2560
 2523SOL     OW10089   2.013   3.134   4.190  0.4069 -0.3277 -0.2701
 2523SOL    HW210090   2.032   3.133   4.097  2.5228  1.7130  0.0955
 2523SOL    HW310091   2.013   3.042   4.216  0.1693 -0.8832 -2.1858
 2523SOL    MW410092   2.015   3.122   4.181  0.6547 -0.1318 -0.4746
 2524SOL     OW10093   1.877   2.794   4.524 -0.0064  0.0159  0.1240
 2524SOL    HW210094   1.862   2.700   4.516 -0.7330  0.1349  0.0926
 2524SOL    HW310095   1.790   2.832   4.532  0.2979  0.6642  0.4168
 2524SOL    MW410096   1.864   2.787   4.524 -0.0621  0.1171  0.1585
 2525SOL     OW10097   2.921   2.081   4.266  0.1478  0.5684 -0.0386
 2525SOL    HW210098   2.936   2.161   4.216 -0.0675 -0.1933 -1.3532
 2525SOL    HW310099   2.851   2.036   4.219 -0.0925 -0.1379  0.9835
 2525SOL    MW410100   2.914   2.085   4.253  0.0877  0.3747 -0.0772
 2526SOL     OW10101   1.987   3.909   3.840  0.1594  0.3725  0.1408
 2526SOL    HW210102   1.991   3.818   3.812 -1.3380 -0.0060  1.0917
 2526SOL    HW310103   2.078   3.939   3.839  0.3734 -0.2056 -3.0638
 2526SOL    MW410104   2.000   3.901   3.836 -0.0099  0.2463 -0.1565
 2527SOL     OW10105   3.346   3.908   4.120  0.1454  0.5790 -0.2317
 2527SOL    HW210106   3.266   3.951   4.150 -0.1848 -1.0957  1.3880
 2527SOL    HW310107   3.353   3.932   4.028 -0.1839  3.8152  0.4952
 2527SOL    MW410108   3.337   3.917   4.112  0.0584  0.7850  0.0779
 2528SOL     OW10109   1.839   4.292   4.166 -0.2945  0.2633 -0.0003
 2528SOL    HW210110   1.758   4.338   4.191 -0.8241 -1.0545  0.7385
 2528SOL    HW310111   1.834   4.286   4.070 -0.2111  1.7380 -0.1150
 2528SOL    MW410112   1.828   4.297   4.156 -0.3533  0.2840  0.0820
 2529SOL     OW10113   4.292   0.436   4.591  0.0150  0.4072 -0.1738
 2529SOL    HW210114   4.215   0.382   4.605  0.9304 -0.8851 -0.0984
 2529SOL    HW310115   4.302   0.440   4.496  0.7530 -0.7240 -0.1529
 2529SOL    MW410116   4.283   0.430   4.580  0.2331  0.0874 -0.1611
 2530SOL     OW10117   0.675   1.302   4.240 -0.0886 -0.4084  0.4194
 2530SOL    HW210118   0.665   1.397   4.226 -0.0143 -0.2919  1.1362
 2530SOL    HW310119   0.674   1.292   4.335 -0.5366 -1.1786  0.3361
 2530SOL    MW410120   0.673   1.313   4.251 -0.1379 -0.4946  0.5030
 2531SOL     OW10121   2.431   0.435   4.479  0.3050  0.5504  0.6968
 2531SOL    HW210122   2.487   0.362   4.506  1.1500  1.1926  0.7055
 2531SOL    HW310123   2.445   0.442   4.385 -2.9954 -1.9895 -0.0797
 2531SOL    MW410124   2.441   0.426   4.470 -0.0189  0.3000  0.5955
 2532SOL     OW10125   1.971   0.729   4.139 -0.0595  0.1083 -0.2870
 2532SOL    HW210126   2.050   0.781   4.149 -0.8586  1.3257 -0.1951
 2532SOL    HW310127   1.899   0.791   4.155 -1.0101 -1.1136  0.2564
 2532SOL    MW410128   1.972   0.744   4.142 -0.2903  0.1077 -0.2032
 2533SOL     OW10129   1.669   2.356   4.595 -0.1030 -0.3360  0.2030
 2533SOL    HW210130   1.738   2.412   4.560 -1.0284  0.1247 -0.9089
 2533SOL    HW310131   1.697   2.267   4.573 -0.7095 -0.0552 -1.8406
 2533SOL    MW410132   1.682   2.352   4.588 -0.3051 -0.2381 -0.2134
 2534SOL     OW10133   4.459   4.009   4.904  0.1163 -0.1364  0.0140
 2534SOL    HW210134   4.421   3.987   4.819  0.6013  0.8532 -0.4619
 2534SOL    HW310135   4.546   4.043   4.884  0.8497 -1.3542  1.0304
 2534SOL    MW410136   4.465   4.010   4.890  0.2770 -0.1665  0.0853
 2535SOL     OW10137   0.407   3.906   4.513  0.1980 -0.3354 -0.0964
 2535SOL    HW210138   0.318   3.871   4.519  0.3094 -0.4335  1.0826
 2535SOL    HW310139   0.417   3.929   4.421 -0.9150 -0.6807 -0.3168
 2535SOL    MW410140   0.396   3.905   4.502  0.0658 -0.3939  0.0301
 2536SOL     OW10141   2.272   1.134   4.147  0.3722  0.0777  0.0146
 2536SOL    HW210142   2.332   1.179   4.207 -0.5156 -0.4492  1.3235
 2536SOL    HW310143   2.273   1.043   4.177 -0.6769 -0.0306 -0.2782
 2536SOL    MW410144   2.280   1.128   4.159  0.1166 -0.0061  0.1486
 2537SOL     OW10145   2.459   1.320   4.222 -0.3322  0.0923 -0.2360
 2537SOL    HW210146   2.480   1.344   4.312  0.2413  0.6804 -0.5214
 2537SOL    HW310147   2.438   1.403   4.179 -0.2416 -0.1411 -0.7386
 2537SOL    MW410148   2.459   1.334   4.228 -0.2446  0.1391 -0.3399
 2538SOL     OW10149   2.482   1.580   4.119  0.0574 -0.1286  0.2595
 2538SOL    HW210150   2.495   1.550   4.029 -1.5266  0.4216 -0.1750
 2538SOL    HW310151   2.570   1.600   4.150  0.6812 -0.8496 -0.9808
 2538SOL    MW410152   2.495   1.579   4.111 -0.0693 -0.1511  0.0386
 2539SOL     OW10153   2.682   2.372   4.522 -0.2675 -0.9844 -0.3834
 2539SOL    HW210154   2.592   2.401   4.534  0.0985  0.6253 -1.3624
 2539SOL    HW310155   2.735   2.448   4.548  0.7516 -1.2849 -1.5502
 2539SOL    MW410156   2.677   2.386   4.527 -0.0848 -0.8117 -0.6665
 2540SOL     OW10157   2.241   1.991   4.164  0.3573  0.1486 -0.1902
 2540SOL    HW210158   2.322   2.038   4.184  0.4929 -0.2876  0.2926
 2540SOL    HW310159   2.256   1.902   4.196 -1.1269  0.6084  1.8722
 2540SOL    MW410160   2.254   1.986   4.171  0.1794  0.1517  0.1456
 2541SOL     OW10161   2.715   2.719   4.164  0.4279 -0.2103  0.8808
 2541SOL    HW210162   2.717   2.631   4.201  0.9236 -0.5632  0.0288
 2541SOL    HW310163   2.798   2.758   4.192  0.4279 -0.1823  0.8413
 2541SOL    MW410164   2.726   2.712   4.173  0.4933 -0.2532  0.7632
 2542SOL     OW10165   1.810   2.500   4.231  0.4528 -0.2441  0.4765
 2542SOL    HW210166   1.895   2.466   4.201  0.5958 -0.3890  1.0394
 2542SOL    HW310167   1.807   2.589   4.196  0.3489 -0.6242 -0.4782
 2542SOL    MW410168   1.821   2.507   4.222  0.4580 -0.3134  0.4248
 2543SOL     OW10169   4.256   3.500   4.571  0.1014  0.5491  0.4748
 2543SOL    HW210170   4.240   3.518   4.478  0.7407  1.6352  0.5708
 2543SOL    HW310171   4.204   3.567   4.617  0.1248  0.2777  0.8953
 2543SOL    MW410172   4.247   3.511   4.565  0.1888  0.6566  0.5430
 2544SOL     OW10173   0.242   4.390   4.313  0.1964 -0.0103 -0.3196
 2544SOL    HW210174   0.302   4.332   4.267 -0.0464 -0.5889  0.0897
 2544SOL    HW310175   0.160   4.382   4.264  0.0240 -0.3916  0.0304
 2544SOL    MW410176   0.239   4.381   4.301  0.1416 -0.1369 -0.2194
 2545SOL     OW10177   3.643   3.216   4.220  0.1116 -0.3537 -0.8371
 2545SOL    HW210178   3.715   3.154   4.214  0.3172 -0.2114  0.1137
 2545SOL    HW310179   3.564   3.162   4.211  0.2344 -0.9871  1.4267
 2545SOL    MW410180   3.642   3.201   4.218  0.1549 -0.4185 -0.4130
 2546SOL     OW10181   3.944   4.151   4.694 -0.0532  0.2412  0.0431
 2546SOL    HW210182   3.866   4.101   4.719  0.0293 -0.0951 -0.3607
 2546SOL    HW310183   3.914   4.206   4.622  0.1064  0.0424 -0.1747
 2546SOL    MW410184   3.929   4.152   4.688 -0.0212  0.1706 -0.0389
 2547SOL     OW10185   2.722   4.234   4.476  0.1515  0.7312 -0.0996
 2547SOL    HW210186   2.641   4.275   4.507  0.6443  0.3633  1.7150
 2547SOL    HW310187   2.785   4.307   4.472 -0.3760  1.1079 -1.9745
 2547SOL    MW410188   2.720   4.249   4.479  0.1469  0.7324 -0.1076
 2548SOL     OW10189   2.246   3.535   4.124  0.2450 -0.5156 -0.0588
 2548SOL    HW210190   2.169   3.582   4.158 -0.1533 -1.9762  1.1222
 2548SOL    HW310191   2.321   3.583   4.158 -0.1566 -1.0166  1.5731
 2548SOL    MW410192   2.245   3.547   4.133  0.1395 -0.7744  0.3123
 2549SOL     OW10193   2.234   4.299   4.617  0.0432  0.2679  0.1629
 2549SOL    HW210194   2.327   4.320   4.606  0.2426 -0.3267  0.6724
 2549SOL    HW310195   2.227   4.207   4.589 -0.6168  0.6603 -1.0082
 2549SOL    MW410196   2.245   4.290   4.611 -0.0176  0.2412  0.0756
 2550SOL     OW10197   2.919   3.885   4.183 -0.1912  0.0336  0.1587
 2550SOL    HW210198   2.911   3.793   4.208 -0.1190  0.2363  0.9486
 2550SOL    HW310199   2.850   3.929   4.233 -0.1757  0.4188 -0.1578
 2550SOL    MW410200   2.909   3.879   4.193 -0.1797  0.1111  0.2212
 2551SOL     OW10201   0.687   0.530   4.267  0.1745 -0.2434 -0.1489
 2551SOL    HW210202   0.673   0.600   4.203 -1.2842  0.2975  0.7630
 2551SOL    HW310203   0.617   0.467   4.249  0.2211 -0.4580  0.4241
 2551SOL    MW410204   0.676   0.531   4.256 -0.0118 -0.2003  0.0470
 2552SOL     OW10205   2.448   4.394   4.262 -0.5462 -0.2411  0.4094
 2552SOL    HW210206   2.530   4.356   4.229 -1.1614 -0.2205 -1.1356
 2552SOL    HW310207   2.380   4.359   4.205 -1.5247  0.5077  1.0951
 2552SOL    MW410208   2.450   4.384   4.250 -0.7564 -0.1396  0.2960
 2553SOL     OW10209   2.484   4.386   4.545  0.3371  0.2334 -0.3379
 2553SOL    HW210210   2.508   4.472   4.579  0.3301  0.0552  0.1251
 2553SOL    HW310211   2.459   4.402   4.454 -2.7989  1.2065  0.6545
 2553SOL    MW410212   2.484   4.399   4.538 -0.0776  0.3383 -0.1459
 2554SOL     OW10213   2.092   0.601   4.552 -0.4117  0.0308 -0.4144
 2554SOL    HW210214   2.067   0.574   4.464  1.8596  0.5760 -1.2552
 2554SOL    HW310215   2.147   0.530   4.585  0.4724  0.7783 -0.2523
 2554SOL    MW410216   2.096   0.588   4.545  0.0046  0.2014 -0.5039
 2555SOL     OW10217   3.866   3.604   4.565 -0.2900 -0.5046 -0.1163
 2555SOL    HW210218   3.865   3.590   4.470 -0.5654  0.5365 -0.2628
 2555SOL    HW310219   3.835   3.521   4.601 -0.8255 -0.6746 -0.9578
 2555SOL    MW410220   3.862   3.591   4.557 -0.3970 -0.3896 -0.2466
 2556SOL     OW10221   0.516   2.307   4.539 -0.2781 -0.3554  0.4700
 2556SOL    HW210222   0.523   2.396   4.573  0.6692 -0.1518 -0.2294
 2556SOL    HW310223   0.592   2.261   4.574  0.1703 -0.4149 -0.5510
 2556SOL    MW410224   0.527   2.312   4.548 -0.0940 -0.3364  0.2430
 2557SOL     OW10225   2.931   0.737   4.086 -0.0937  0.1975  0.0958
 2557SOL    HW210226   2.911   0.751   3.994  0.3027  0.2267  0.0134
 2557SOL    HW310227   2.851   0.761   4.132 -0.4432 -0.2454 -0.2735
 2557SOL    MW410228   2.918   0.742   4.080 -0.0875  0.1429  0.0362
 2558SOL     OW10229   3.109   0.864   4.463  0.4705  0.4227  0.1258
 2558SOL    HW210230   3.125   0.843   4.371  1.1903  0.7425  0.1749
 2558SOL    HW310231   3.107   0.778   4.507 -0.0361  0.2623 -0.2099
 2558SOL    MW410232   3.111   0.850   4.457  0.4986  0.4437  0.0879
 2559SOL     OW10233   1.614   3.496   4.675 -0.4861 -0.2735 -0.2221
 2559SOL    HW210234   1.681   3.558   4.704 -1.6323  1.1153 -0.5084
 2559SOL    HW310235   1.564   3.544   4.609 -0.7586 -1.8505 -1.1967
 2559SOL    MW410236   1.616   3.511   4.670 -0.6733 -0.2984 -0.3885
 2560SOL     OW10237   1.788   0.348   4.179  0.1703  0.2135  0.1570
 2560SOL    HW210238   1.771   0.270   4.232  0.7152 -0.6859 -0.9749
 2560SOL    HW310239   1.856   0.395   4.227 -0.1719 -0.0028  0.8546
 2560SOL    MW410240   1.795   0.344   4.192  0.1970  0.0663  0.0997
 2561SOL     OW10241   2.940   1.488   4.140 -0.4581  0.1990 -0.2899
 2561SOL    HW210242   3.029   1.517   4.159 -0.5381 -0.5378  1.3466
 2561SOL    HW310243   2.937   1.397   4.172 -2.0179  0.4966  0.4677
 2561SOL    MW410244   2.951   1.480   4.147 -0.6745  0.1410  0.0259
 2562SOL     OW10245   3.585   1.671   4.233  0.1896 -0.2662 -0.0293
 2562SOL    HW210246   3.524   1.616   4.183  1.8651 -1.2667 -1.0505
 2562SOL    HW310247   3.671   1.633   4.215  1.3494  2.3485 -0.2674
 2562SOL    MW410248   3.588   1.659   4.224  0.5637 -0.0532 -0.1955
 2563SOL     OW10249   2.732   1.670   4.215 -0.0546 -0.1267  0.0322
 2563SOL    HW210250   2.802   1.605   4.204 -1.5279 -1.7875  0.2069
 2563SOL    HW310251   2.692   1.648   4.298 -0.8701  0.7510 -0.1193
 2563SOL    MW410252   2.736   1.659   4.224 -0.3565 -0.2300  0.0352
 2564SOL     OW10253   2.757   1.937   4.103  0.0282  0.0078  0.4271
 2564SOL    HW210254   2.765   1.847   4.133  0.5560 -0.2290 -0.4236
 2564SOL    HW310255   2.750   1.930   4.008 -1.1904  0.7773  0.4483
 2564SOL    MW410256   2.757   1.924   4.095 -0.0629  0.0781  0.3176
 2565SOL     OW10257   3.758   2.172   4.457  0.0486  0.4121  0.1309
 2565SOL    HW210258   3.782   2.147   4.368 -0.4448  2.1635 -0.4996
 2565SOL    HW310259   3.839   2.165   4.507  0.7641  1.3407 -0.8835
 2565SOL    MW410260   3.772   2.167   4.452  0.0779  0.7657 -0.0862
 2566SOL     OW10261   4.094   1.655   4.586  0.2990 -0.3416 -0.2176
 2566SOL    HW210262   4.043   1.722   4.631 -0.6991  0.7659 -2.9270
 2566SOL    HW310263   4.185   1.682   4.600  0.0158 -0.0753  1.1950
 2566SOL    MW410264   4.100   1.668   4.594  0.1299 -0.1604 -0.3887
 2567SOL     OW10265   4.125   0.045   4.492  0.1316  0.0305 -0.7539
 2567SOL    HW210266   4.220   0.055   4.499 -0.0510  0.0796  2.3463
 2567SOL    HW310267   4.107  -0.042   4.526 -1.1502  0.9249  0.9067
 2567SOL    MW410268   4.135   0.035   4.497 -0.0616  0.1550 -0.1258
 2568SOL     OW10269   1.188   4.489   4.520 -0.1207 -0.0783  0.6203
 2568SOL    HW210270   1.165   4.432   4.447  0.4451 -0.2154  0.5447
 2568SOL    HW310271   1.284   4.486   4.523 -0.0893  0.8635  0.6167
 2568SOL    MW410272   1.198   4.481   4.511 -0.0419  0.0279  0.6098
 2569SOL     OW10273   2.144   2.870   4.551  0.0513  0.2161 -0.2468
 2569SOL    HW210274   2.131   2.963   4.566  0.9948  0.1790  0.9068
 2569SOL    HW310275   2.056   2.832   4.554 -0.0859  0.6596  2.2574
 2569SOL    MW410276   2.131   2.877   4.553  0.1576  0.2697  0.2358
 2570SOL     OW10277   4.265   4.338   4.268  0.3209 -0.3573  0.0443
 2570SOL    HW210278   4.346   4.319   4.221  1.5185  0.6050  1.6892
 2570SOL    HW310279   4.288   4.332   4.360 -0.9522  2.0408  0.5580
 2570SOL    MW410280   4.279   4.334   4.274  0.3110  0.0861  0.3291
 2571SOL     OW10281   2.972   3.102   4.169  0.0393 -0.1848  0.1845
 2571SOL    HW210282   2.907   3.164   4.204  0.7683  0.3821  0.5475
 2571SOL    HW310283   2.929   3.063   4.093 -0.3753  0.8691 -0.1363
 2571SOL    MW410284   2.957   3.105   4.164  0.0808  0.0291  0.1901
 2572SOL     OW10285   3.841   3.593   4.284 -0.3414  0.2462  0.5637
 2572SOL    HW210286   3.767   3.541   4.252  1.5349 -1.0446 -1.7864
 2572SOL    HW310287   3.828   3.679   4.245  0.8122 -0.7434 -2.1136
 2572SOL    MW410288   3.829   3.598   4.275  0.0584 -0.0547 -0.0996
 2573SOL     OW10289   3.358   0.526   4.553 -0.0728  0.2011 -0.3303
 2573SOL    HW210290   3.421   0.599   4.549  1.1137 -0.7952 -0.0857
 2573SOL    HW310291   3.341   0.504   4.461  1.4295 -0.7713 -0.4005
 2573SOL    MW410292   3.364   0.533   4.540  0.2820 -0.0587 -0.3073
 2574SOL     OW10293   2.730   4.062   4.267 -0.4573 -0.5308 -0.5063
 2574SOL    HW210294   2.643   4.026   4.254 -0.0848 -2.5358  2.0748
 2574SOL    HW310295   2.720   4.122   4.341  0.3601 -0.9149 -0.0764
 2574SOL    MW410296   2.717   4.065   4.275 -0.3003 -0.8460 -0.1090
 2575SOL     OW10297   2.494   3.636   4.229  0.1316 -0.1723 -0.0918
 2575SOL    HW210298   2.520   3.728   4.230 -0.2205 -0.0629 -0.4371
 2575SOL    HW310299   2.479   3.614   4.321  0.0430  0.1704 -0.0208
 2575SOL    MW410300   2.495   3.646   4.241  0.0734 -0.1127 -0.1280
 2576SOL     OW10301   2.505   3.915   4.189  0.4386 -0.0077  0.0376
 2576SOL    HW210302   2.503   3.888   4.097  0.8466  1.0086 -0.2718
 2576SOL    HW310303   2.419   3.953   4.205 -0.4340 -2.1855  0.7004
 2576SOL    MW410304   2.494   3.916   4.179  0.3773 -0.1610  0.0842
 2577SOL     OW10305   3.702   0.117   4.533  0.1841 -0.0772  0.8567
 2577SOL    HW210306   3.679   0.195   4.585  1.0820  1.0152 -0.3502
 2577SOL    HW310307   3.663   0.133   4.447  1.4786 -0.3591  0.2104
 2577SOL    MW410308   3.694   0.130   4.529  0.4734  0.0297  0.6122
 2578SOL     OW10309   3.965   0.515   4.532  0.4852  0.1068  0.0757
 2578SOL    HW210310   3.983   0.424   4.555  0.5744 -0.3103 -1.5774
 2578SOL    HW310311   4.052   0.554   4.522  0.4792  0.9025  2.6482
 2578SOL    MW410312   3.979   0.508   4.534  0.4962  0.1567  0.1970
 2579SOL     OW10313   1.115   4.368   4.290 -0.4508 -0.2863 -0.0322
 2579SOL    HW210314   1.114   4.445   4.234 -0.4376  0.0630  0.4456
 2579SOL    HW310315   1.032   4.323   4.271 -0.1228 -0.5386 -0.8422
 2579SOL    MW410316   1.104   4.372   4.280 -0.4058 -0.2735 -0.0760
 2580SOL     OW10317   2.274   3.285   4.248 -0.2171  0.3912  0.1958
 2580SOL    HW210318   2.277   3.371   4.208  0.3511 -0.1903 -1.0500
 2580SOL    HW310319   2.187   3.251   4.225  0.1251  0.0399 -0.6034
 2580SOL    MW410320   2.263   3.292   4.240 -0.0970  0.2681 -0.0740
 2581SOL     OW10321   3.658   4.519   4.603  0.7553  0.6661 -0.6873
 2581SOL    HW210322   3.671   4.609   4.574  1.8822  1.0338  0.8738
 2581SOL    HW310323   3.730   4.471   4.565 -0.3668  0.2196 -2.2895
 2581SOL    MW410324   3.669   4.525   4.594  0.7559  0.6557 -0.6927
 2582SOL     OW10325   3.404   0.693   4.110  0.1733 -0.9587  0.1135
 2582SOL    HW210326   3.405   0.606   4.151 -0.2281 -1.2662 -0.5275
 2582SOL    HW310327   3.317   0.728   4.132 -0.0821 -1.1685 -0.5716
 2582SOL    MW410328   3.393   0.686   4.119  0.0866 -1.0269 -0.0615
 2583SOL     OW10329   3.171   0.824   4.171  0.4007 -0.3489 -0.0267
 2583SOL    HW210330   3.174   0.920   4.169  0.8159 -0.3356  0.7689
 2583SOL    HW310331   3.090   0.801   4.127 -0.8692  0.4592  1.8575
 2583SOL    MW410332   3.161   0.834   4.165  0.2880 -0.2405  0.3269
 2584SOL     OW10333   3.355   1.256   4.196  0.7868 -0.2572  0.0801
 2584SOL    HW210334   3.429   1.198   4.179  0.5540 -0.1369 -1.3805
 2584SOL    HW310335   3.381   1.341   4.158  0.2439  0.0057  0.2835
 2584SOL    MW410336   3.368   1.260   4.189  0.6845 -0.2066 -0.0858
 2585SOL     OW10337   3.144   1.101   4.152 -0.1393 -0.1275 -0.0106
 2585SOL    HW210338   3.221   1.153   4.177 -1.3575  1.0697  1.3409
 2585SOL    HW310339   3.137   1.113   4.057 -0.1120  1.8293  0.2163
 2585SOL    MW410340   3.153   1.110   4.143 -0.2965  0.2886  0.1977
 2586SOL     OW10341   3.409   1.505   4.077 -0.2877 -0.4651 -0.1044
 2586SOL    HW210342   3.320   1.534   4.097 -0.5522 -1.2168 -0.1921
 2586SOL    HW310343   3.424   1.535   3.988 -0.7999 -1.1550 -0.4270
 2586SOL    MW410344   3.399   1.513   4.068 -0.3902 -0.6553 -0.1586
 2587SOL     OW10345   2.933   1.239   4.266  0.3000 -0.1632  0.4608
 2587SOL    HW210346   2.857   1.192   4.234 -0.7205  2.1961 -0.7490
 2587SOL    HW310347   3.008   1.189   4.233 -0.7138 -1.9032  0.7488
 2587SOL    MW410348   2.933   1.226   4.257  0.0316 -0.0815  0.3392
 2588SOL     OW10349   3.142   1.904   4.132 -0.0315 -0.3166  0.3836
 2588SOL    HW210350   3.215   1.943   4.181 -0.5267  2.3155 -0.8794
 2588SOL    HW310351   3.068   1.962   4.148 -1.4899 -2.1655  0.4788
 2588SOL    MW410352   3.142   1.917   4.140 -0.2893 -0.2133  0.2295
 2589SOL     OW10353   3.405   2.291   4.193  0.2365  0.0084 -0.0288
 2589SOL    HW210354   3.372   2.210   4.232 -0.3822 -0.1396 -0.8358
 2589SOL    HW310355   3.394   2.278   4.098  0.0558  1.0736 -0.1619
 2589SOL    MW410356   3.399   2.278   4.185  0.1310  0.1294 -0.1528
 2590SOL     OW10357   2.374   0.484   4.865  0.2730 -0.0098 -0.1064
 2590SOL    HW210358   2.317   0.430   4.809  0.4277 -1.1394  0.7990
 2590SOL    HW310359   2.337   0.473   4.952  1.9709 -0.8751  0.5176
 2590SOL    MW410360   2.361   0.475   4.869  0.5175 -0.2730  0.0954
 2591SOL     OW10361   3.189   2.712   4.119 -0.2469  0.0743 -0.1571
 2591SOL    HW210362   3.274   2.743   4.150  0.1828  0.1556 -1.3627
 2591SOL    HW310363   3.184   2.621   4.147  0.4967 -0.0996 -0.5922
 2591SOL    MW410364   3.199   2.704   4.126 -0.0921  0.0621 -0.3735
 2592SOL     OW10365   1.294   3.218   4.487  0.5114 -0.4296  0.3993
 2592SOL    HW210366   1.278   3.310   4.508  0.7992 -0.2236 -0.2623
 2592SOL    HW310367   1.354   3.188   4.556 -0.7032 -0.5175  1.4231
 2592SOL    MW410368   1.300   3.226   4.498  0.3891 -0.4141  0.4471
 2593SOL     OW10369   1.636   1.552   4.141 -0.0410 -0.0297  0.2810
 2593SOL    HW210370   1.613   1.470   4.184 -1.7061  0.2999  0.0675
 2593SOL    HW310371   1.553   1.598   4.132  0.9343  1.8800  0.7855
 2593SOL    MW410372   1.622   1.547   4.145 -0.1320  0.2658  0.3194
 2594SOL     OW10373   3.402   3.108   4.123  0.0864  0.3827 -0.3533
 2594SOL    HW210374   3.397   3.016   4.150 -3.7631  0.9245  1.2079
 2594SOL    HW310375   3.413   3.104   4.028  1.2633 -1.6643 -0.1682
 2594SOL    MW410376   3.403   3.095   4.114 -0.2662  0.1841 -0.1229
 2595SOL     OW10377   1.308   2.685   4.877 -0.0708  0.7141  0.1798
 2595SOL    HW210378   1.358   2.608   4.903 -0.6176 -0.0100 -0.8547
 2595SOL    HW310379   1.222   2.651   4.851 -0.8240  1.8425  1.1407
 2595SOL    MW410380   1.303   2.670   4.877 -0.2423  0.7674  0.1701
 2596SOL     OW10381   3.148   3.500   4.136  0.3541 -0.2060  0.0426
 2596SOL    HW210382   3.158   3.412   4.171 -3.4638 -0.3630  0.8940
 2596SOL    HW310383   3.136   3.488   4.042 -0.6178 -0.6402  0.2197
 2596SOL    MW410384   3.148   3.487   4.128 -0.2779 -0.2840  0.1783
 2597SOL     OW10385   3.978   1.875   4.739  0.5848  0.0099 -0.5539
 2597SOL    HW210386   4.029   1.878   4.821  1.4125  2.3726 -1.1363
 2597SOL    HW310387   3.894   1.838   4.765  1.2987 -0.5078  1.1125
 2597SOL    MW410388   3.974   1.870   4.754  0.7882  0.2533 -0.4109
 2598SOL     OW10389   3.627   3.481   4.146  0.2790  0.7475  0.4843
 2598SOL    HW210390   3.541   3.519   4.164 -1.0496 -2.1158  0.4427
 2598SOL    HW310391   3.620   3.391   4.177  2.3912 -0.3395 -2.0602
 2598SOL    MW410392   3.615   3.474   4.153  0.3824  0.2263  0.1431
 2599SOL     OW10393   3.389   2.386   4.523  0.0349  0.3480 -0.0552
 2599SOL    HW210394   3.477   2.410   4.551 -0.6082  1.0510  1.4645
 2599SOL    HW310395   3.349   2.468   4.496 -0.1622  0.0376 -0.7082
 2599SOL    MW410396   3.395   2.400   4.523 -0.0760  0.3998  0.0592
 2600SOL     OW10397   3.173   2.459   4.241 -0.0524 -0.5411  0.1701
 2600SOL    HW210398   3.193   2.519   4.313 -0.1229 -0.5932  0.2330
 2600SOL    HW310399   3.253   2.409   4.228  0.3765  0.3221 -0.6098
 2600SOL    MW410400   3.186   2.461   4.249 -0.0051 -0.4341  0.0755
 2601SOL     OW10401   3.412   3.421   4.618  0.3181  0.4734  0.4156
 2601SOL    HW210402   3.386   3.508   4.589  1.0679  0.7566  0.5687
 2601SOL    HW310403   3.479   3.437   4.685  1.1825 -0.2290 -0.2574
 2601SOL    MW410404   3.418   3.435   4.623  0.5310  0.4181  0.3470
 2602SOL     OW10405   3.778   4.632   4.154 -0.1606 -0.1503  0.6378
 2602SOL    HW210406   3.773   4.618   4.059 -1.7577  0.8543  0.5647
 2602SOL    HW310407   3.862   4.676   4.168 -0.7423  1.3268 -0.5094
 2602SOL    MW410408   3.789   4.636   4.143 -0.4481  0.1771  0.4768
 2603SOL     OW10409   2.919   4.483   4.094  0.2136  0.1473  0.1329
 2603SOL    HW210410   2.918   4.557   4.155  0.8417  0.0067  0.3134
 2603SOL    HW310411   2.844   4.430   4.121 -0.6630  1.0672 -0.4339
 2603SOL    MW410412   2.909   4.486   4.106  0.1808  0.2501  0.0819
 2604SOL     OW10413   0.796   4.164   4.684  0.3285 -0.7803  0.0925
 2604SOL    HW210414   0.756   4.172   4.770 -0.0485 -0.7262 -0.0911
 2604SOL    HW310415   0.884   4.199   4.695  0.1069 -0.3019  0.3275
 2604SOL    MW410416   0.803   4.170   4.697  0.2495 -0.7101  0.0993
 2605SOL     OW10417   1.131   3.600   4.238 -0.0756  0.1657  0.6495
 2605SOL    HW210418   1.145   3.572   4.328  0.4290 -0.0889  0.4950
 2605SOL    HW310419   1.049   3.559   4.212 -0.9351  1.3450  1.4384
 2605SOL    MW410420   1.122   3.591   4.247 -0.1224  0.2877  0.7332
 2606SOL     OW10421   1.814   3.686   4.708 -0.1406 -0.2743 -0.2315
 2606SOL    HW210422   1.788   3.773   4.678 -0.7755 -0.8667 -1.4500
 2606SOL    HW310423   1.905   3.677   4.681  0.5253  0.7319  1.5839
 2606SOL    MW410424   1.822   3.696   4.700 -0.1365 -0.2197 -0.1527
 2607SOL     OW10425   2.781   2.629   4.611 -0.3615 -0.2323  0.1621
 2607SOL    HW210426   2.723   2.704   4.626  0.2381  0.1076  0.7717
 2607SOL    HW310427   2.864   2.668   4.585  0.1502 -0.6656  1.1422
 2607SOL    MW410428   2.784   2.644   4.609 -0.2149 -0.2446  0.3719
 2608SOL     OW10429   3.589   1.118   4.171 -0.0344 -0.0009  0.0004
 2608SOL    HW210430   3.602   1.027   4.199  0.2891  0.1005  0.1772
 2608SOL    HW310431   3.583   1.113   4.076 -1.2300 -0.3591  0.0865
 2608SOL    MW410432   3.590   1.105   4.162 -0.1495 -0.0348  0.0351
 2609SOL     OW10433   4.045   0.895   4.280 -0.2033 -0.2241 -0.4710
 2609SOL    HW210434   3.969   0.840   4.262 -0.6182 -0.0735  0.7760
 2609SOL    HW310435   4.118   0.849   4.239 -0.3761 -2.2197  1.3333
 2609SOL    MW410436   4.044   0.882   4.272 -0.2809 -0.4676 -0.0684
 2610SOL     OW10437   4.063   2.439   4.275  0.0122  0.2135  0.4770
 2610SOL    HW210438   3.985   2.395   4.242  0.0657  0.8270 -0.4533
 2610SOL    HW310439   4.051   2.440   4.370 -0.5662 -0.7124  0.4201
 2610SOL    MW410440   4.051   2.433   4.284 -0.0571  0.1723  0.3468
 2611SOL     OW10441   3.490   1.735   4.486  0.4218 -0.0039 -0.5905
 2611SOL    HW210442   3.532   1.815   4.515 -0.7546  0.1029  0.9087
 2611SOL    HW310443   3.533   1.713   4.404  1.8639  1.2725 -0.1889
 2611SOL    MW410444   3.501   1.742   4.479  0.4569  0.1786 -0.3397
 2612SOL     OW10445   3.564   1.937   4.153  0.1813  0.1903 -0.0166
 2612SOL    HW210446   3.572   1.845   4.177  2.4604  0.3099 -0.2416
 2612SOL    HW310447   3.590   1.941   4.061 -0.5893  0.9620 -0.2156
 2612SOL    MW410448   3.568   1.926   4.144  0.3803  0.3079 -0.0725
 2613SOL     OW10449   3.866   0.201   4.852  0.5915  0.0541 -0.2106
 2613SOL    HW210450   3.851   0.108   4.835  1.3520  0.1094 -1.2113
 2613SOL    HW310451   3.937   0.202   4.916 -1.2437 -0.1114  1.8834
 2613SOL    MW410452   3.873   0.189   4.858  0.4497  0.0396 -0.0664
 2614SOL     OW10453   3.825   2.038   4.218  0.0329  0.2541  0.2025
 2614SOL    HW210454   3.732   2.018   4.216 -0.2567  1.6396 -0.3443
 2614SOL    HW310455   3.833   2.122   4.174  1.7566 -0.6850 -1.3318
 2614SOL    MW410456   3.814   2.047   4.212  0.2221  0.3130 -0.0721
 2615SOL     OW10457   3.250   2.646   4.438 -0.0474  0.0284 -0.1309
 2615SOL    HW210458   3.175   2.697   4.472 -0.4904 -0.7644  0.0830
 2615SOL    HW310459   3.327   2.690   4.475 -0.4798 -0.1897  1.0531
 2615SOL    MW410460   3.250   2.659   4.447 -0.1629 -0.1050  0.0535
 2616SOL     OW10461   3.790   1.303   4.304  0.0678  0.2936  0.9245
 2616SOL    HW210462   3.763   1.320   4.394 -2.2645 -0.6157  0.4126
 2616SOL    HW310463   3.721   1.249   4.267  0.9067  0.7961 -1.4935
 2616SOL    MW410464   3.778   1.298   4.311 -0.1293  0.2399  0.5379
 2617SOL     OW10465   3.616   2.460   4.230 -0.5019  0.2240 -0.1124
 2617SOL    HW210466   3.595   2.535   4.174 -0.2659  1.7209  1.7406
 2617SOL    HW310467   3.536   2.409   4.233 -0.4865  0.0639 -1.8744
 2617SOL    MW410468   3.603   2.463   4.223 -0.4687  0.4004 -0.1004
 2618SOL     OW10469   3.366   4.409   4.239  0.4634 -0.1162 -0.2534
 2618SOL    HW210470   3.369   4.492   4.191  3.0752 -0.3315 -0.5290
 2618SOL    HW310471   3.392   4.431   4.328  0.7780 -0.5717 -0.2299
 2618SOL    MW410472   3.370   4.422   4.244  0.8495 -0.2047 -0.2866
 2619SOL     OW10473   3.667   0.345   4.712 -0.5620 -0.2152 -0.4684
 2619SOL    HW210474   3.686   0.439   4.711  1.2995 -0.5694 -0.2329
 2619SOL    HW310475   3.723   0.309   4.780 -1.9131 -1.3893  0.0610
 2619SOL    MW410476   3.677   0.352   4.721 -0.4947 -0.4169 -0.3675
 2620SOL     OW10477   2.877   1.232   4.548 -0.1169 -0.3128  0.2982
 2620SOL    HW210478   2.935   1.299   4.584  0.5274 -1.3671  1.2706
 2620SOL    HW310479   2.907   1.221   4.457  0.4812 -0.0474  0.4561
 2620SOL    MW410480   2.889   1.239   4.540  0.0470 -0.4169  0.4473
 2621SOL     OW10481   4.078   1.900   4.177 -0.6514 -0.3739  0.0840
 2621SOL    HW210482   3.997   1.949   4.192  0.1094  0.4446  1.6471
 2621SOL    HW310483   4.147   1.961   4.203  0.4797 -1.0221 -1.3451
 2621SOL    MW410484   4.076   1.915   4.182 -0.4018 -0.3515  0.1016
 2622SOL     OW10485   3.813   3.842   4.162  0.2666 -0.0271  0.0674
 2622SOL    HW210486   3.736   3.886   4.198 -0.5523 -0.0945 -1.5220
 2622SOL    HW310487   3.887   3.884   4.204 -0.5881  1.3620  0.2120
 2622SOL    MW410488   3.812   3.853   4.172  0.0458  0.1473 -0.1232
 2623SOL     OW10489   2.968   2.311   4.124 -0.3236  0.1724 -0.1768
 2623SOL    HW210490   3.043   2.355   4.164  0.3724 -0.5383 -0.7079
 2623SOL    HW310491   2.894   2.367   4.146 -0.0750 -0.5655  2.7314
 2623SOL    MW410492   2.968   2.324   4.132 -0.1990 -0.0187  0.1369
 2624SOL     OW10493   0.401   4.595   4.700 -0.2022 -0.2077 -0.4955
 2624SOL    HW210494   0.376   4.683   4.673 -1.7652  0.6265  3.3693
 2624SOL    HW310495   0.336   4.538   4.659 -0.0071  0.5172 -1.8729
 2624SOL    MW410496   0.389   4.599   4.691 -0.3827 -0.0020 -0.1673
 2625SOL     OW10497   4.055   4.219   4.150 -0.0051 -0.2340 -0.2627
 2625SOL    HW210498   3.973   4.262   4.175 -0.0675 -0.1228 -0.6597
 2625SOL    HW310499   4.123   4.268   4.197 -0.1805 -0.4126  0.1738
 2625SOL    MW410500   4.053   4.231   4.160 -0.0365 -0.2429 -0.2575
 2626SOL     OW10501   0.241   4.651   4.203  0.1212  0.0550 -0.1594
 2626SOL    HW210502   0.248   4.576   4.262 -2.3417  0.0221  0.1544
 2626SOL    HW310503   0.158   4.693   4.227  0.1687  1.3281 -2.1027
 2626SOL    MW410504   0.231   4.647   4.214 -0.1975  0.2187 -0.3744
 2627SOL     OW10505   4.305   3.048   4.659 -0.3114  0.3804  0.1422
 2627SOL    HW210506   4.390   3.091   4.669 -0.2911  0.3374  0.1511
 2627SOL    HW310507   4.256   3.105   4.600 -0.3234  0.4734  0.2418
 2627SOL    MW410508   4.309   3.061   4.653 -0.3103  0.3870  0.1565
 2628SOL     OW10509   0.670   4.526   4.694  0.2653  0.0539 -0.1719
 2628SOL    HW210510   0.659   4.461   4.625  1.8294 -0.2634 -0.1417
 2628SOL    HW310511   0.581   4.554   4.715 -0.3201 -0.9276 -1.2763
 2628SOL    MW410512   0.656   4.521   4.687  0.3944 -0.1175 -0.3136
 2629SOL     OW10513   4.250   0.747   4.140 -0.1396  0.1556 -0.3435
 2629SOL    HW210514   4.335   0.785   4.163  0.6857 -0.7125 -1.8467
 2629SOL    HW310515   4.242   0.763   4.046 -0.1172 -2.6977 -0.8777
 2629SOL    MW410516   4.260   0.754   4.130 -0.0277 -0.3354 -0.6123
 2630SOL     OW10517   4.458   0.344   4.174 -0.4096 -0.4255  0.3054
 2630SOL    HW210518   4.543   0.372   4.207  0.4583  0.0445 -2.1827
 2630SOL    HW310519   4.464   0.357   4.079 -3.0322 -0.9995  0.0233
 2630SOL    MW410520   4.470   0.349   4.166 -0.6411 -0.4392 -0.0601
 2631SOL     OW10521   3.579   0.385   4.197  0.1972 -0.1083 -0.6804
 2631SOL    HW210522   3.589   0.386   4.101  0.6797  0.8772 -0.6303
 2631SOL    HW310523   3.653   0.436   4.229 -0.3484  0.1532  0.1808
 2631SOL    MW410524   3.590   0.392   4.188  0.1888  0.0562 -0.5602
 2632SOL     OW10525   3.578   0.850   4.253  0.5770  0.0967 -0.2590
 2632SOL    HW210526   3.513   0.799   4.203 -0.3004  0.8774  0.0700
 2632SOL    HW310527   3.567   0.819   4.343 -2.1877  3.0368  0.5332
 2632SOL    MW410528   3.568   0.839   4.258  0.0965  0.5876 -0.1110
 2633SOL     OW10529   1.061   3.075   4.853 -0.5534  0.4801  0.0588
 2633SOL    HW210530   0.967   3.063   4.841 -0.2280 -0.2191 -2.0263
 2633SOL    HW310531   1.075   3.169   4.841 -1.4353  1.1468  3.9011
 2633SOL    MW410532   1.051   3.086   4.850 -0.6268  0.4758  0.2906
 2634SOL     OW10533   1.768   0.077   4.276 -0.0641  0.5260 -0.1686
 2634SOL    HW210534   1.795   0.055   4.365 -1.8701 -0.6621  0.1212
 2634SOL    HW310535   1.846   0.062   4.223  0.3537 -1.2051  0.8772
 2634SOL    MW410536   1.782   0.072   4.281 -0.2473  0.1408  0.0076
 2635SOL     OW10537   1.177   2.034   4.522  0.4503 -0.0474 -0.8368
 2635SOL    HW210538   1.179   2.119   4.565  0.0242 -0.0800 -0.7412
 2635SOL    HW310539   1.162   2.054   4.429 -2.4833 -0.0888 -0.4448
 2635SOL    MW410540   1.175   2.048   4.515  0.0070 -0.0571 -0.7725
 2636SOL     OW10541   4.281   1.557   4.217 -0.2126  0.0790  0.1189
 2636SOL    HW210542   4.290   1.544   4.123 -0.3169  1.7844 -0.1526
 2636SOL    HW310543   4.189   1.583   4.229 -0.7642 -2.1873  0.9604
 2636SOL    MW410544   4.270   1.559   4.206 -0.2991  0.0050  0.1941
 2637SOL     OW10545   4.489   1.700   4.350  0.7398 -0.0587  0.0018
 2637SOL    HW210546   4.567   1.644   4.359  0.6958 -0.1019  0.1113
 2637SOL    HW310547   4.427   1.647   4.301 -0.2828 -1.1248  2.3527
 2637SOL    MW410548   4.491   1.685   4.345  0.5991 -0.2051  0.3265
 2638SOL     OW10549   1.598   1.931   4.680  0.1979  0.5488 -0.2757
 2638SOL    HW210550   1.510   1.898   4.664 -0.9571  2.0043  2.7105
 2638SOL    HW310551   1.644   1.859   4.723 -0.4493  0.7506  0.7693
 2638SOL    MW410552   1.592   1.917   4.683 -0.0399  0.7675  0.2561
 2639SOL     OW10553   4.278   1.294   4.299  0.1631  0.1484 -0.3549
 2639SOL    HW210554   4.191   1.260   4.278 -0.2222  0.2781  0.9991
 2639SOL    HW310555   4.277   1.384   4.268 -0.4291  0.3697  0.3133
 2639SOL    MW410556   4.266   1.301   4.292  0.0341  0.1947 -0.0881
 2640SOL     OW10557   0.703   0.233   4.686  0.6505  0.0293 -0.0478
 2640SOL    HW210558   0.694   0.279   4.769  0.0080 -0.2809  0.0551
 2640SOL    HW310559   0.615   0.204   4.665  0.3859  2.0697 -1.9613
 2640SOL    MW410560   0.690   0.235   4.694  0.5308  0.2576 -0.2867
 2641SOL     OW10561   3.647   3.814   4.534  0.5952  0.2577 -0.3349
 2641SOL    HW210562   3.660   3.896   4.582 -0.7303 -0.1630  0.8131
 2641SOL    HW310563   3.730   3.767   4.543  0.5421  0.4092  1.1606
 2641SOL    MW410564   3.659   3.818   4.542  0.4133  0.2222  0.0139
 2642SOL     OW10565   4.277   3.089   4.200 -0.5310 -0.3181 -0.2223
 2642SOL    HW210566   4.280   3.090   4.104 -0.1367  0.9129 -0.2010
 2642SOL    HW310567   4.205   3.148   4.222  1.1886  1.6296  0.2973
 2642SOL    MW410568   4.268   3.097   4.190 -0.2521  0.1013 -0.1509
 2643SOL     OW10569   4.150   3.222   4.518  0.2013 -0.0755  0.4870
 2643SOL    HW210570   4.123   3.224   4.426  2.0700 -0.1400 -0.0745
 2643SOL    HW310571   4.180   3.312   4.536 -0.4443  0.0177  1.1283
 2643SOL    MW410572   4.150   3.234   4.508  0.3626 -0.0717  0.4975
 2644SOL     OW10573   4.065   3.488   4.146  0.1178  0.1274 -0.3336
 2644SOL    HW210574   4.051   3.481   4.051  1.0659 -0.0691 -0.4616
 2644SOL    HW310575   3.989   3.537   4.177 -1.3001 -1.6883 -0.8823
 2644SOL    MW410576   4.053   3.494   4.137  0.0558 -0.1381 -0.4229
 2645SOL     OW10577   4.290   3.859   4.226 -0.2132  0.3434 -0.2129
 2645SOL    HW210578   4.278   3.843   4.132  0.3702  0.3081 -0.2799
 2645SOL    HW310579   4.263   3.777   4.268 -2.1662  0.9478 -0.2298
 2645SOL    MW410580   4.284   3.846   4.219 -0.3939  0.4185 -0.2240
 2646SOL     OW10581   3.049   2.080   4.655 -0.0397 -0.6299 -0.6189
 2646SOL    HW210582   3.034   2.090   4.749  1.1866 -0.8464 -0.3924
 2646SOL    HW310583   2.968   2.110   4.615 -0.3887 -0.0594  0.4860
 2646SOL    MW410584   3.036   2.085   4.663  0.0760 -0.5832 -0.4433
 2647SOL     OW10585   2.658   0.577   4.514  0.7107  0.3518 -0.0519
 2647SOL    HW210586   2.579   0.541   4.475 -0.0520 -0.2262  1.9749
 2647SOL    HW310587   2.653   0.671   4.497  0.2208  0.1542 -1.0119
 2647SOL    MW410588   2.647   0.585   4.507  0.5454  0.2495  0.0889
 2648SOL     OW10589   1.852   0.013   4.522 -0.0649 -0.4494  0.0399
 2648SOL    HW210590   1.764   0.005   4.560 -0.5561  1.5522 -0.6302
 2648SOL    HW310591   1.888  -0.076   4.527 -1.2173 -0.8338  2.4652
 2648SOL    MW410592   1.845   0.000   4.528 -0.2817 -0.2360  0.2715
 2649SOL     OW10593   1.117   0.743   4.079 -0.3708  0.7879  0.0426
 2649SOL    HW210594   1.039   0.784   4.117 -0.4273 -0.7352  1.6003
 2649SOL    HW310595   1.126   0.660   4.126  2.1487  0.9096 -0.1759
 2649SOL    MW410596   1.108   0.738   4.090 -0.0458  0.6030  0.2193
 2650SOL     OW10597   3.109   4.293   4.187  0.7734  0.0087 -0.0560
 2650SOL    HW210598   3.189   4.341   4.206 -0.1193  0.6392  2.2771
 2650SOL    HW310599   3.045   4.360   4.165 -0.1816 -0.1449  2.1216
 2650SOL    MW410600   3.111   4.308   4.187  0.5296  0.0716  0.5391
 2651SOL     OW10601   3.826   4.356   4.246  0.0220 -0.5540  0.1829
 2651SOL    HW210602   3.746   4.306   4.231  0.1930 -0.4291 -1.1907
 2651SOL    HW310603   3.807   4.443   4.211  1.4616 -1.1144 -2.0986
 2651SOL    MW410604   3.813   4.361   4.240  0.2345 -0.6115 -0.2994
 2652SOL     OW10605   1.767   0.683   4.648  0.2255 -0.3816 -0.2047
 2652SOL    HW210606   1.847   0.632   4.635 -0.0699 -0.7485 -0.5864
 2652SOL    HW310607   1.776   0.757   4.588 -0.1658 -0.9459 -0.9727
 2652SOL    MW410608   1.779   0.686   4.638  0.1349 -0.5045 -0.3564
 2653SOL     OW10609   0.941   2.614   4.560 -0.2500 -0.1527  0.4826
 2653SOL    HW210610   0.865   2.668   4.580 -0.3421 -0.7984  1.9371
 2653SOL    HW310611   1.006   2.676   4.527 -0.0687  0.9982  2.8900
 2653SOL    MW410612   0.940   2.629   4.559 -0.2382 -0.0861  0.9921
 2654SOL     OW10613   0.253   1.174   4.495  0.8213  0.0986  0.6449
 2654SOL    HW210614   0.200   1.176   4.575  1.6866 -0.5215  1.2412
 2654SOL    HW310615   0.335   1.215   4.520 -0.1028  3.0441 -0.8448
 2654SOL    MW410616   0.257   1.180   4.509  0.8135  0.4054  0.5271
 2655SOL     OW10617   1.935   1.485   4.571 -0.1991 -0.1450  0.2688
 2655SOL    HW210618   1.922   1.391   4.577 -0.2795 -0.1327  0.2827
 2655SOL    HW310619   2.028   1.495   4.549 -0.7455 -0.3029 -2.2376
 2655SOL    MW410620   1.946   1.474   4.569 -0.2818 -0.1642 -0.0600
 2656SOL     OW10621   0.013   4.010   4.246  0.1504  0.5490  0.0634
 2656SOL    HW210622   0.078   3.964   4.194 -0.8177 -0.1137 -0.5794
 2656SOL    HW310623  -0.067   3.958   4.236 -0.4349  1.2598  0.9702
 2656SOL    MW410624   0.011   3.997   4.238 -0.0545  0.5554  0.0982
 2657SOL     OW10625   3.704   1.824   4.774 -0.3844 -0.2661 -0.1847
 2657SOL    HW210626   3.655   1.742   4.778 -1.1448  0.2366  0.9801
 2657SOL    HW310627   3.653   1.880   4.715 -1.0036  0.1025  0.6835
 2657SOL    MW410628   3.691   1.821   4.766 -0.5664 -0.1511  0.0835
 2658SOL     OW10629   3.395   3.680   4.479 -0.1919  0.0906 -0.5038
 2658SOL    HW210630   3.470   3.738   4.492 -1.0148  1.3825 -1.4654
 2658SOL    HW310631   3.399   3.656   4.387 -0.4040 -0.6250 -0.3280
 2658SOL    MW410632   3.405   3.684   4.469 -0.3285  0.1666 -0.6075
 2659SOL     OW10633   2.302   2.434   4.250 -0.3277  0.2985  0.3904
 2659SOL    HW210634   2.372   2.408   4.191  0.3084  0.0303  1.2495
 2659SOL    HW310635   2.222   2.397   4.211  0.2242 -0.7819  0.2648
 2659SOL    MW410636   2.300   2.425   4.237 -0.1709  0.1206  0.4872
 2660SOL     OW10637   3.820   2.937   4.479 -0.1608 -0.2057  0.2868
 2660SOL    HW210638   3.867   2.997   4.537 -1.0316 -0.1364  0.9402
 2660SOL    HW310639   3.801   2.861   4.533 -0.3766 -0.4370 -0.1104
 2660SOL    MW410640   3.824   2.935   4.493 -0.3042 -0.2271  0.3206
 2661SOL     OW10641   3.696   2.445   4.501  0.1773  0.2113 -0.0240
 2661SOL    HW210642   3.726   2.354   4.503 -0.8435 -0.1124  1.1639
 2661SOL    HW310643   3.662   2.458   4.412  2.1194  0.0363 -0.8177
 2661SOL    MW410644   3.696   2.435   4.490  0.2988  0.1455  0.0280
 2662SOL     OW10645   4.018   4.367   4.845  0.2449  0.0627  0.0155
 2662SOL    HW210646   4.106   4.353   4.881  0.5566  0.5748 -0.5313
 2662SOL    HW310647   3.996   4.284   4.804  0.6570  0.0616 -0.2120
 2662SOL    MW410648   4.027   4.354   4.844  0.3404  0.1301 -0.0867
 2663SOL     OW10649   0.234   0.725   4.209 -0.1003  0.4848 -0.2933
 2663SOL    HW210650   0.155   0.773   4.235 -0.1946 -0.8469  2.0834
 2663SOL    HW310651   0.306   0.784   4.228 -0.4773  1.5609 -2.1103
 2663SOL    MW410652   0.233   0.739   4.215 -0.1625  0.4511 -0.2195
 2664SOL     OW10653   2.042   3.165   4.620  0.1172  0.6863  0.0791
 2664SOL    HW210654   1.967   3.217   4.592 -0.1517 -0.0031 -0.5045
 2664SOL    HW310655   2.032   3.156   4.715  0.2968  1.8857  0.2243
 2664SOL    MW410656   2.031   3.171   4.629  0.1054  0.7536  0.0213
 2665SOL     OW10657   0.250   2.081   4.148  0.3585 -0.5112  0.2053
 2665SOL    HW210658   0.170   2.032   4.168 -0.5535  1.2766  1.0747
 2665SOL    HW310659   0.321   2.017   4.160 -0.8491 -1.8239  0.4950
 2665SOL    MW410660   0.249   2.066   4.152  0.0789 -0.4486  0.3582
 2666SOL     OW10661   2.915   0.480   4.455  0.1381  0.1471  0.2719
 2666SOL    HW210662   2.828   0.511   4.477 -0.5780 -0.3090 -1.7726
 2666SOL    HW310663   2.975   0.540   4.500 -1.1970 -0.3150  2.7596
 2666SOL    MW410664   2.912   0.492   4.464 -0.1325  0.0259  0.3304
 2667SOL     OW10665   3.335   1.392   4.710  0.2988  0.0806  0.0357
 2667SOL    HW210666   3.344   1.337   4.788 -0.6192  0.4327  0.3897
 2667SOL    HW310667   3.416   1.443   4.707 -0.9351  2.2336  2.4230
 2667SOL    MW410668   3.347   1.391   4.720  0.0149  0.4111  0.3974
 2668SOL     OW10669   1.340   1.160   4.167 -0.0035 -0.5068 -0.2607
 2668SOL    HW210670   1.338   1.181   4.073  0.3008 -0.7420 -0.3192
 2668SOL    HW310671   1.340   1.065   4.171 -0.4993 -0.5014 -0.0075
 2668SOL    MW410672   1.339   1.150   4.155 -0.0288 -0.5371 -0.2350
 2669SOL     OW10673   2.857   0.949   4.558  0.5186  0.1178 -0.1187
 2669SOL    HW210674   2.877   1.039   4.583  1.4811 -0.4159  1.1109
 2669SOL    HW310675   2.934   0.919   4.509  0.1794 -0.0095 -0.5726
 2669SOL    MW410676   2.870   0.957   4.555  0.6008  0.0306 -0.0164
 2670SOL     OW10677   4.047   3.236   4.257  0.1789 -0.0470 -0.1111
 2670SOL    HW210678   3.975   3.179   4.228  0.7820 -0.5794 -0.5936
 2670SOL    HW310679   4.034   3.317   4.209  0.1443 -0.2979 -0.5300
 2670SOL    MW410680   4.036   3.239   4.247  0.2539 -0.1504 -0.2300
 2671SOL     OW10681   1.995   4.412   4.522  0.2457  0.7723  0.5370
 2671SOL    HW210682   2.068   4.365   4.564  0.5988  0.1082 -0.7958
 2671SOL    HW310683   1.921   4.352   4.529  0.2403  0.7666  0.4230
 2671SOL    MW410684   1.995   4.398   4.529  0.2915  0.6839  0.3461
 2672SOL     OW10685   0.621   3.111   4.085 -0.6008 -0.0725  0.7539
 2672SOL    HW210686   0.703   3.154   4.110 -0.0102 -0.4498 -0.4898
 2672SOL    HW310687   0.628   3.023   4.123 -1.4528  0.6329  2.6025
 2672SOL    MW410688   0.633   3.105   4.093 -0.6353 -0.0292  0.8337
 2673SOL     OW10689   0.918   1.928   4.173 -0.5090 -0.0072  0.4019
 2673SOL    HW210690   0.915   1.915   4.079  2.4902  0.2016  0.2161
 2673SOL    HW310691   0.899   1.841   4.210  0.5729 -0.6323 -0.4674
 2673SOL    MW410692   0.915   1.915   4.166  0.0295 -0.0621  0.2627
 2674SOL     OW10693   1.662   3.915   4.625 -0.0582 -0.1068  0.5243
 2674SOL    HW210694   1.587   3.875   4.581  0.8867 -0.4146 -0.8374
 2674SOL    HW310695   1.626   3.992   4.669 -1.0409  0.1549 -0.7242
 2674SOL    MW410696   1.647   3.920   4.625 -0.0632 -0.1129  0.1799
 2675SOL     OW10697   2.198   0.867   4.208  0.3667  0.1036 -0.3226
 2675SOL    HW210698   2.276   0.811   4.209  0.0248 -0.3954 -0.7610
 2675SOL    HW310699   2.163   0.862   4.297  1.4324  1.1850  0.1554
 2675SOL    MW410700   2.203   0.859   4.220  0.4622  0.1805 -0.3174
 2676SOL     OW10701   1.152   0.499   4.222 -0.3061 -0.0888 -0.1867
 2676SOL    HW210702   1.152   0.476   4.315  0.0316  2.3027  0.4404
 2676SOL    HW310703   1.071   0.461   4.188 -0.0120 -1.7312  0.8745
 2676SOL    MW410704   1.142   0.491   4.230 -0.2227  0.0100  0.0361
 2677SOL     OW10705   0.834   3.204   4.459 -0.3236  0.4796 -0.5549
 2677SOL    HW210706   0.916   3.183   4.506 -0.5157  0.3984 -0.2544
 2677SOL    HW310707   0.784   3.122   4.461 -0.2824  0.4466 -1.0050
 2677SOL    MW410708   0.839   3.190   4.466 -0.3435  0.4645 -0.5747
 2678SOL     OW10709   3.368   1.203   4.481 -0.3084 -0.3279 -0.0475
 2678SOL    HW210710   3.345   1.271   4.544  0.7648  0.3554 -0.3867
 2678SOL    HW310711   3.373   1.248   4.397  0.9302 -0.7051 -0.1900
 2678SOL    MW410712   3.366   1.218   4.479 -0.0034 -0.2875 -0.1111
 2679SOL     OW10713   1.064   3.093   4.565  0.4589  0.9003  0.1410
 2679SOL    HW210714   1.063   3.089   4.661  0.5827 -2.2750  0.0642
 2679SOL    HW310715   1.145   3.141   4.545  1.7998 -0.6296  1.6283
 2679SOL    MW410716   1.075   3.099   4.575  0.6522  0.2795  0.3271
 2680SOL     OW10717   1.923   1.874   4.469  0.6659  0.6072  0.1076
 2680SOL    HW210718   2.002   1.845   4.514  0.0185  0.0519  0.9096
 2680SOL    HW310719   1.908   1.807   4.402 -0.1184 -0.2609  1.1297
 2680SOL    MW410720   1.931   1.861   4.466  0.4770  0.4194  0.3483
 2681SOL     OW10721   2.263   3.776   4.586 -0.1545  0.4530  0.7953
 2681SOL    HW210722   2.193   3.713   4.604  0.1660  0.1542  1.0042
 2681SOL    HW310723   2.340   3.721   4.569 -0.1606  0.7563 -0.2429
 2681SOL    MW410724   2.264   3.760   4.586 -0.1130  0.4536  0.6859
 2682SOL     OW10725   2.138   1.730   4.585  0.1122  0.2198  0.3709
 2682SOL    HW210726   2.159   1.691   4.670 -0.5398 -1.8674 -0.3989
 2682SOL    HW310727   2.223   1.755   4.548  0.6180 -1.1775  0.5630
 2682SOL    MW410728   2.152   1.728   4.591  0.0929 -0.2400  0.2947
 2683SOL     OW10729   3.422   1.191   4.910  0.3254  0.0402 -0.0628
 2683SOL    HW210730   3.466   1.173   4.994  0.5174 -0.1596 -0.2065
 2683SOL    HW310731   3.372   1.112   4.892  0.4283  0.0129 -0.2272
 2683SOL    MW410732   3.421   1.178   4.919  0.3644  0.0102 -0.1034
 2684SOL     OW10733   0.866   0.426   4.553 -0.1923  0.9261  0.0842
 2684SOL    HW210734   0.827   0.511   4.530 -0.9280  0.7133  0.5243
 2684SOL    HW310735   0.794   0.377   4.593  0.4708  0.4247  0.6656
 2684SOL    MW410736   0.851   0.431   4.555 -0.2019  0.8319  0.2190
 2685SOL     OW10737   2.397   2.757   4.514  0.2606  0.1518 -0.3655
 2685SOL    HW210738   2.311   2.773   4.553  1.3206  1.3368  1.5383
 2685SOL    HW310739   2.459   2.767   4.586  1.9508 -1.5927 -1.5166
 2685SOL    MW410740   2.394   2.760   4.529  0.6235  0.0779 -0.2662
 2686SOL     OW10741   2.106   0.131   4.546  0.8579  0.1202  0.5670
 2686SOL    HW210742   2.151   0.062   4.595 -0.1781 -0.0008  1.3594
 2686SOL    HW310743   2.017   0.098   4.533  0.6581  0.8469  0.0106
 2686SOL    MW410744   2.100   0.118   4.551  0.6948  0.2001  0.5982
 2687SOL     OW10745   0.476   0.125   4.331 -0.1824 -0.0977 -0.3529
 2687SOL    HW210746   0.553   0.082   4.295 -0.1549  0.6669 -1.2301
 2687SOL    HW310747   0.402   0.078   4.293 -0.1567 -0.2915 -0.1674
 2687SOL    MW410748   0.477   0.113   4.321 -0.1754 -0.0224 -0.4442
 2688SOL     OW10749   3.040   0.094   4.731  0.0802 -0.1085 -0.0488
 2688SOL    HW210750   3.080   0.141   4.804 -0.5053  0.3220 -0.0001
 2688SOL    HW310751   2.984   0.159   4.688  0.1058 -0.4673 -0.6360
 2688SOL    MW410752   3.038   0.109   4.735  0.0063 -0.0990 -0.1198
 2689SOL     OW10753   0.027   3.478   4.192  0.3657 -0.0299  0.1868
 2689SOL    HW210754   0.104   3.524   4.226  0.0297  0.1573  0.6874
 2689SOL    HW310755   0.022   3.506   4.101  0.4310  0.5716  0.3644
 2689SOL    MW410756   0.037   3.488   4.184  0.3300  0.0742  0.2763
 2690SOL     OW10757   1.552   4.625   4.153 -0.0399 -0.2269 -0.1897
 2690SOL    HW210758   1.625   4.683   4.176 -0.4668 -0.2338  1.2313
 2690SOL    HW310759   1.476   4.665   4.194 -0.6418 -0.8516 -0.6855
 2690SOL    MW410760   1.552   4.638   4.162 -0.1756 -0.3103 -0.0676
 2691SOL     OW10761   2.554   4.630   4.650  0.1781 -0.4105 -0.2701
 2691SOL    HW210762   2.646   4.628   4.677  0.1876  0.5223 -0.2197
 2691SOL    HW310763   2.544   4.714   4.604 -0.4243 -0.9201 -1.0758
 2691SOL    MW410764   2.565   4.641   4.647  0.0998 -0.3547 -0.3698
 2692SOL     OW10765   3.564   3.223   4.496  0.5557  0.4086 -0.0213
 2692SOL    HW210766   3.610   3.237   4.414 -0.0536  0.0360 -0.4306
 2692SOL    HW310767   3.504   3.298   4.503  1.9002  1.4078  0.9893
 2692SOL    MW410768   3.562   3.235   4.486  0.6527  0.4913  0.0580
 2693SOL     OW10769   0.750   2.073   4.499  0.0184  0.2947  0.3118
 2693SOL    HW210770   0.718   2.045   4.414 -1.2738  0.1498  0.8332
 2693SOL    HW310771   0.803   2.150   4.481 -0.8421  0.6987 -0.5472
 2693SOL    MW410772   0.753   2.079   4.486 -0.2656  0.3289  0.2673
 2694SOL     OW10773   0.899   0.841   4.464  0.1088 -0.4407 -0.2111
 2694SOL    HW210774   0.991   0.814   4.462 -0.1196 -1.1920 -0.5123
 2694SOL    HW310775   0.902   0.931   4.498  1.0277 -0.1466 -1.0372
 2694SOL    MW410776   0.912   0.849   4.468  0.1999 -0.5010 -0.3598
 2695SOL     OW10777   2.870   1.702   4.562 -0.1839  0.1372  0.8860
 2695SOL    HW210778   2.934   1.770   4.539  0.2636 -0.4735  0.2806
 2695SOL    HW310779   2.922   1.622   4.570 -0.8476 -0.3337  0.5668
 2695SOL    MW410780   2.885   1.700   4.560 -0.2124 -0.0055  0.7640
 2696SOL     OW10781   0.312   3.134   4.634  0.0835  0.0407 -0.1844
 2696SOL    HW210782   0.362   3.211   4.607  0.8225 -0.3539  0.0614
 2696SOL    HW310783   0.221   3.156   4.612  0.3271  0.8630 -0.3854
 2696SOL    MW410784   0.307   3.147   4.628  0.2131  0.0971 -0.1785
 2697SOL     OW10785   2.965   2.834   4.235  0.1981  0.1855 -0.2363
 2697SOL    HW210786   3.032   2.794   4.179 -0.6030 -0.0164 -1.0669
 2697SOL    HW310787   2.978   2.928   4.224 -0.6626  0.1506 -1.6395
 2697SOL    MW410788   2.976   2.841   4.226 -0.0212  0.1543 -0.5310
 2698SOL     OW10789   3.226   1.667   4.438  0.4035 -0.1176 -0.8737
 2698SOL    HW210790   3.187   1.754   4.439 -0.3582 -0.4593 -0.7542
 2698SOL    HW310791   3.309   1.677   4.485 -0.2971  0.2542  0.2903
 2698SOL    MW410792   3.232   1.679   4.444  0.2105 -0.1137 -0.7044
 2699SOL     OW10793   3.824   1.556   4.183  0.0560 -0.1467 -0.0662
 2699SOL    HW210794   3.809   1.465   4.208  0.9852 -0.6286 -1.2028
 2699SOL    HW310795   3.900   1.583   4.234  0.0770 -0.1665 -0.0864
 2699SOL    MW410796   3.832   1.547   4.193  0.1814 -0.2129 -0.2188
 2700SOL     OW10797   0.920   0.104   4.264  0.3651  0.0886 -0.1954
 2700SOL    HW210798   0.993   0.053   4.230  0.5321  0.3130 -0.1735
 2700SOL    HW310799   0.907   0.071   4.353  0.3151 -0.0864 -0.2689
 2700SOL    MW410800   0.928   0.093   4.271  0.3805  0.0951 -0.2022
 2701SOL     OW10801   3.379   4.660   4.113  0.3652 -0.0355  0.3688
 2701SOL    HW210802   3.313   4.695   4.172 -0.5736  0.3421 -0.8894
 2701SOL    HW310803   3.462   4.689   4.150 -0.2430  0.6564  1.1987
 2701SOL    MW410804   3.381   4.669   4.126  0.1611  0.1056  0.3123
 2702SOL     OW10805   3.589   3.960   4.278  0.0101  0.1417 -0.8243
 2702SOL    HW210806   3.581   3.920   4.365 -0.8531  0.9664 -0.5212
 2702SOL    HW310807   3.517   3.920   4.228  0.3137 -0.0960 -1.0698
 2702SOL    MW410808   3.578   3.949   4.283 -0.0637  0.2192 -0.8167
 2703SOL     OW10809   0.888   0.881   4.181  0.3956 -0.5618  0.0239
 2703SOL    HW210810   0.874   0.975   4.172  0.5854 -0.7227 -2.0625
 2703SOL    HW310811   0.900   0.868   4.275  0.4480  1.5044  0.3258
 2703SOL    MW410812   0.888   0.892   4.193  0.4275 -0.3104 -0.2115
 2704SOL     OW10813   0.050   2.179   4.606  0.3809  0.2053  0.3183
 2704SOL    HW210814   0.139   2.178   4.569  1.3090  0.7033  2.4235
 2704SOL    HW310815   0.060   2.138   4.692 -1.7434 -1.0982 -0.0337
 2704SOL    MW410816   0.063   2.173   4.612  0.2231  0.0990  0.5496
 2705SOL     OW10817   2.753   2.454   4.254  0.1037  0.0187 -0.3950
 2705SOL    HW210818   2.741   2.432   4.346 -1.0407  1.3039 -0.2208
 2705SOL    HW310819   2.674   2.422   4.211 -0.1444  0.9412 -0.6434
 2705SOL    MW410820   2.741   2.447   4.260 -0.0800  0.3100 -0.4048
 2706SOL     OW10821   2.697   1.123   4.183  0.3410  0.1362  0.3100
 2706SOL    HW210822   2.691   1.135   4.088  0.0279  0.1079  0.3223
 2706SOL    HW310823   2.635   1.187   4.219 -1.2721 -1.4017  0.3824
 2706SOL    MW410824   2.688   1.133   4.175  0.0869 -0.0705  0.3212
 2707SOL     OW10825   4.295   2.804   4.246 -0.1487 -0.0851  0.0779
 2707SOL    HW210826   4.280   2.800   4.341 -1.4062 -0.3922 -0.1348
 2707SOL    HW310827   4.270   2.893   4.222  1.2095  0.3523  0.1933
 2707SOL    MW410828   4.290   2.816   4.256 -0.1354 -0.0679  0.0651
 2708SOL     OW10829   2.447   3.566   4.491  0.2374 -0.2040 -0.4315
 2708SOL    HW210830   2.529   3.523   4.516  0.1316 -0.1607 -0.0030
 2708SOL    HW310831   2.379   3.503   4.517  0.0996  0.0706 -0.1341
 2708SOL    MW410832   2.449   3.552   4.498  0.2053 -0.1621 -0.3357
 2709SOL     OW10833   2.124   0.852   4.471  0.0422  0.0472 -0.1391
 2709SOL    HW210834   2.112   0.765   4.508  0.4294 -0.3259 -0.8859
 2709SOL    HW310835   2.162   0.904   4.543  0.0747 -0.4655  0.2179
 2709SOL    MW410836   2.127   0.847   4.486  0.0976 -0.0697 -0.1906
 2710SOL     OW10837   0.035   3.511   4.627  0.7107 -0.2287  0.2050
 2710SOL    HW210838   0.033   3.571   4.702  1.2618  1.5492 -1.1656
 2710SOL    HW310839  -0.057   3.497   4.605  0.5903  0.7936  0.0198
 2710SOL    MW410840   0.023   3.517   4.634  0.7675  0.1408 -0.0002
 2711SOL     OW10841   2.616   0.218   4.498  0.3844  0.0209  0.0136
 2711SOL    HW210842   2.698   0.249   4.538  0.3881 -1.1402  0.9316
 2711SOL    HW310843   2.644   0.162   4.426  0.4006 -0.3625  0.3173
 2711SOL    MW410844   2.631   0.215   4.494  0.3871 -0.1829  0.1748
 2712SOL     OW10845   3.737   2.685   4.630  0.8231  0.0583  0.1846
 2712SOL    HW210846   3.831   2.676   4.649  0.5435  0.1450  1.7422
 2712SOL    HW310847   3.715   2.607   4.579  2.1360  1.0158 -1.9068
 2712SOL    MW410848   3.747   2.673   4.626  0.9595  0.1960  0.1142
 2713SOL     OW10849   1.804   3.503   4.155 -0.0219  0.7687 -0.3860
 2713SOL    HW210850   1.803   3.490   4.061 -1.0188  2.1848 -0.5862
 2713SOL    HW310851   1.767   3.422   4.191  0.0868  0.3462 -1.2168
 2713SOL    MW410852   1.799   3.491   4.148 -0.1391  0.8998 -0.5220
 2714SOL     OW10853   3.011   2.775   4.504  0.4258 -0.1479 -0.1551
 2714SOL    HW210854   3.040   2.860   4.536 -1.3787  0.6293 -0.5079
 2714SOL    HW310855   2.994   2.788   4.411  2.4218 -1.5307 -0.7434
 2714SOL    MW410856   3.012   2.788   4.496  0.4511 -0.2278 -0.2793
 2715SOL     OW10857   1.600   2.900   4.546  0.2996  0.0299 -0.4226
 2715SOL    HW210858   1.543   2.829   4.575 -1.0173  0.5029 -1.7468
 2715SOL    HW310859   1.558   2.980   4.579  0.4024  0.3513 -1.0551
 2715SOL    MW410860   1.587   2.902   4.554  0.1394  0.1347 -0.6807
 2716SOL     OW10861   0.251   2.355   4.121 -0.5952  0.5460  0.2535
 2716SOL    HW210862   0.325   2.372   4.178  0.2662  0.0997 -0.7105
 2716SOL    HW310863   0.237   2.260   4.126 -1.5112  0.7061  0.9187
 2716SOL    MW410864   0.259   2.345   4.129 -0.6024  0.5082  0.2141
 2717SOL     OW10865   2.066   4.432   4.247  0.1657  0.1427 -0.0818
 2717SOL    HW210866   2.042   4.435   4.340 -2.4574  1.3901 -0.7504
 2717SOL    HW310867   1.994   4.384   4.206  0.0543  1.7981 -1.8450
 2717SOL    MW410868   2.053   4.426   4.254 -0.1951  0.5257 -0.4027
 2718SOL     OW10869   4.271   3.577   4.306  0.1265 -0.1294 -0.1522
 2718SOL    HW210870   4.203   3.543   4.247  1.0229  0.2155 -1.4101
 2718SOL    HW310871   4.352   3.536   4.275  0.7580  0.8293  0.2143
 2718SOL    MW410872   4.273   3.567   4.294  0.3281  0.0426 -0.2698
 2719SOL     OW10873   4.059   0.276   4.633  0.0492  0.2972  0.1093
 2719SOL    HW210874   4.071   0.188   4.596  1.1980  0.8680 -0.8956
 2719SOL    HW310875   4.002   0.262   4.708  0.9324 -1.4336  0.4855
 2719SOL    MW410876   4.053   0.262   4.638  0.3173  0.1441  0.0264
 2720SOL     OW10877   1.367   2.677   4.156  0.2619 -0.2350  0.0102
 2720SOL    HW210878   1.282   2.722   4.155 -0.3492 -1.2757  2.1282
 2720SOL    HW310879   1.424   2.735   4.206 -0.3490 -1.4336  2.1693
 2720SOL    MW410880   1.363   2.690   4.162  0.1007 -0.5304  0.5745
 2721SOL     OW10881   2.411   2.474   4.490  0.6020  0.2863 -0.3416
 2721SOL    HW210882   2.378   2.453   4.403  1.2395 -0.7518 -0.3380
 2721SOL    HW310883   2.411   2.570   4.493 -0.4327  0.3173 -1.0836
 2721SOL    MW410884   2.407   2.484   4.479  0.5496  0.1534 -0.4390
 2722SOL     OW10885   1.549   3.866   4.140  0.3710 -0.5998 -0.2258
 2722SOL    HW210886   1.563   3.782   4.184 -1.4656  0.5032  2.6307
 2722SOL    HW310887   1.628   3.917   4.159  0.4232 -0.8191  0.1474
 2722SOL    MW410888   1.561   3.862   4.148  0.1356 -0.4832  0.2003
 2723SOL     OW10889   3.813   4.564   4.824 -0.5240 -0.3212  0.0894
 2723SOL    HW210890   3.877   4.495   4.811 -0.7081 -0.4133 -0.3442
 2723SOL    HW310891   3.748   4.550   4.755  0.0454  0.9860 -0.7366
 2723SOL    MW410892   3.813   4.553   4.813 -0.4732 -0.1609 -0.0768
 2724SOL     OW10893   1.718   4.275   4.499  0.2184  0.1174 -0.0263
 2724SOL    HW210894   1.646   4.245   4.553  0.6221 -0.9413 -0.0719
 2724SOL    HW310895   1.677   4.307   4.419 -0.3798  1.6399  0.8682
 2724SOL    MW410896   1.703   4.275   4.496  0.1927  0.1786  0.0857
 2725SOL     OW10897   1.875   4.051   4.499  0.0899 -0.3308 -0.1752
 2725SOL    HW210898   1.838   4.139   4.493  0.5331 -0.0922  0.4680
 2725SOL    HW310899   1.806   3.999   4.541 -0.7331 -0.6433 -1.8593
 2725SOL    MW410900   1.861   4.056   4.504  0.0398 -0.3406 -0.3125
 2726SOL     OW10901   2.703   4.321   4.154  0.1584  0.0493 -0.4295
 2726SOL    HW210902   2.689   4.299   4.062  2.3075  0.1823 -0.8241
 2726SOL    HW310903   2.713   4.236   4.198  0.2728  0.0199 -0.5129
 2726SOL    MW410904   2.702   4.306   4.148  0.4570  0.0630 -0.4926
 2727SOL     OW10905   3.200   3.251   4.242  0.0476  0.6805 -0.4923
 2727SOL    HW210906   3.270   3.198   4.204  0.3647 -1.3391  2.7362
 2727SOL    HW310907   3.120   3.202   4.222  0.2522 -0.5826  1.7063
 2727SOL    MW410908   3.198   3.237   4.234  0.1164  0.2474  0.2238
 2728SOL     OW10909   4.115   1.189   4.651 -0.2226 -0.1003 -0.2381
 2728SOL    HW210910   4.091   1.104   4.613  1.0676 -1.4465  1.8235
 2728SOL    HW310911   4.038   1.216   4.701  0.5674 -1.8629  2.0608
 2728SOL    MW410912   4.102   1.181   4.653  0.0519 -0.5104  0.3372
 2729SOL     OW10913   2.027   2.140   4.275  0.5583 -0.2200  0.3991
 2729SOL    HW210914   1.957   2.094   4.228  1.0327 -0.2588 -0.2890
 2729SOL    HW310915   2.106   2.091   4.253  0.9354  0.3917  0.3937
 2729SOL    MW410916   2.028   2.127   4.266  0.6706 -0.1444  0.3076
 2730SOL     OW10917   1.847   0.915   4.477 -0.5009 -0.5806 -0.4475
 2730SOL    HW210918   1.938   0.887   4.471 -1.0092 -2.5148  0.4740
 2730SOL    HW310919   1.812   0.902   4.388 -0.3410 -1.5684 -0.3751
 2730SOL    MW410920   1.854   0.910   4.464 -0.5469 -0.9662 -0.3164
 2731SOL     OW10921   2.239   0.382   4.649 -0.3289  0.0518 -0.1123
 2731SOL    HW210922   2.309   0.389   4.584  0.4952 -0.4452  0.7070
 2731SOL    HW310923   2.185   0.309   4.618  0.7545 -0.9782  0.4041
 2731SOL    MW410924   2.241   0.373   4.636 -0.0772 -0.1497  0.0639
 2732SOL     OW10925   4.488   0.870   4.233  0.1786 -0.6209 -0.1190
 2732SOL    HW210926   4.473   0.961   4.207  2.1793 -0.0833  0.5579
 2732SOL    HW310927   4.462   0.868   4.325 -0.5460 -0.9199 -0.3256
 2732SOL    MW410928   4.482   0.882   4.242  0.3470 -0.5894 -0.0569
 2733SOL     OW10929   2.735   3.467   4.132  0.1781 -0.1748 -0.0112
 2733SOL    HW210930   2.656   3.510   4.166 -0.1804 -0.0025 -1.0590
 2733SOL    HW310931   2.807   3.521   4.164 -0.1809  0.2268  0.1191
 2733SOL    MW410932   2.734   3.480   4.141  0.0834 -0.0990 -0.1323
 2734SOL     OW10933   4.261   0.488   4.295 -0.2156  0.1715  0.1665
 2734SOL    HW210934   4.334   0.439   4.256 -0.8595 -1.5094  1.0405
 2734SOL    HW310935   4.261   0.572   4.248  1.3177 -0.3984 -0.8941
 2734SOL    MW410936   4.271   0.493   4.284 -0.0983 -0.1255  0.1418
 2735SOL     OW10937   0.244   4.036   4.866 -0.0453 -0.2452  0.1766
 2735SOL    HW210938   0.264   3.943   4.855  0.3319 -0.3002  1.2284
 2735SOL    HW310939   0.264   4.076   4.781  0.3347 -1.0306 -0.1034
 2735SOL    MW410940   0.250   4.029   4.854  0.0546 -0.3561  0.2784
 2736SOL     OW10941   3.042   1.891   4.447  0.5313 -0.1396  0.0698
 2736SOL    HW210942   3.034   1.949   4.371  0.6509 -0.3192 -0.0800
 2736SOL    HW310943   3.047   1.950   4.522 -1.4604  0.0037  0.1149
 2736SOL    MW410944   3.042   1.906   4.447  0.2843 -0.1444  0.0560
 2737SOL     OW10945   4.104   3.697   4.690 -0.1207  0.0948  0.1665
 2737SOL    HW210946   4.019   3.668   4.656 -0.1283 -0.3035  0.5213
 2737SOL    HW310947   4.109   3.790   4.666 -0.4459  0.0012 -0.2760
 2737SOL    MW410948   4.094   3.705   4.683 -0.1646  0.0299  0.1550
 2738SOL     OW10949   1.150   2.041   4.249  0.4709 -0.5074 -0.4299
 2738SOL    HW210950   1.138   2.128   4.210  1.1356 -0.6010 -0.8566
 2738SOL    HW310951   1.074   1.991   4.219 -0.2918  0.1301  0.4145
 2738SOL    MW410952   1.138   2.046   4.240  0.4580 -0.4357 -0.3748
 2739SOL     OW10953   4.039   3.981   4.296  0.2490 -0.5754  0.1019
 2739SOL    HW210954   4.028   4.070   4.261  0.0254 -0.3222  0.8028
 2739SOL    HW310955   4.125   3.954   4.266  0.6946  0.2309  0.6198
 2739SOL    MW410956   4.049   3.990   4.288  0.2783 -0.4356  0.2627
 2740SOL     OW10957   0.874   3.990   4.311  0.5286  0.5748  0.2880
 2740SOL    HW210958   0.887   3.955   4.399  1.1852 -1.1176 -0.4649
 2740SOL    HW310959   0.942   3.949   4.258 -0.2925  1.0332 -1.1728
 2740SOL    MW410960   0.885   3.980   4.316  0.5069  0.4120 -0.0041
 2741SOL     OW10961   1.319   4.000   4.243  0.0186  0.0934 -0.4800
 2741SOL    HW210962   1.399   3.956   4.212  0.8578  0.4997  1.0605
 2741SOL    HW310963   1.335   4.093   4.227 -0.3873  0.1319 -0.6789
 2741SOL    MW410964   1.332   4.006   4.237  0.0757  0.1521 -0.3030
 2742SOL     OW10965   0.874   3.185   4.190  0.0626 -0.1483  0.1599
 2742SOL    HW210966   0.964   3.155   4.180 -0.1872 -0.9266  0.2268
 2742SOL    HW310967   0.859   3.184   4.285 -0.2494 -0.7116  0.1048
 2742SOL    MW410968   0.884   3.181   4.201 -0.0115 -0.3253  0.1614
 2743SOL     OW10969   2.915   0.006   4.313 -0.1166  0.0971  0.0694
 2743SOL    HW210970   2.910  -0.074   4.366  0.4618  0.6875  1.0175
 2743SOL    HW310971   2.826   0.041   4.315 -0.3695 -0.5015 -0.3318
 2743SOL    MW410972   2.902  -0.000   4.320 -0.0736  0.0960  0.1416
 2744SOL     OW10973   1.565   0.491   4.206 -0.1147 -0.1321  0.5438
 2744SOL    HW210974   1.644   0.438   4.195  0.9184  1.3077  0.9903
 2744SOL    HW310975   1.566   0.514   4.299 -1.7435 -1.1655  0.8368
 2744SOL    MW410976   1.576   0.487   4.217 -0.1933 -0.0785  0.6414
 2745SOL     OW10977   3.140   4.031   4.546  0.0133 -0.2273 -0.4657
 2745SOL    HW210978   3.055   4.061   4.577 -0.0923 -0.4545 -0.5366
 2745SOL    HW310979   3.130   4.027   4.450  0.5057  1.0125 -0.5819
 2745SOL    MW410980   3.127   4.034   4.537  0.0643 -0.0937 -0.4904
 2746SOL     OW10981   2.691   0.849   4.186  0.0353  0.0886  0.0540
 2746SOL    HW210982   2.691   0.939   4.153 -0.0183 -0.1485 -0.6078
 2746SOL    HW310983   2.603   0.817   4.168  0.3062 -0.3675 -0.4684
 2746SOL    MW410984   2.679   0.857   4.179  0.0640 -0.0028 -0.1023
 2747SOL     OW10985   3.399   0.270   4.666 -0.2282  0.3604 -0.1599
 2747SOL    HW210986   3.484   0.294   4.702 -0.4021  1.5314 -0.5268
 2747SOL    HW310987   3.379   0.339   4.603 -1.0622 -0.3620 -0.6990
 2747SOL    MW410988   3.408   0.282   4.662 -0.3612  0.4196 -0.2794
 2748SOL     OW10989   0.356   1.619   4.171  0.2754  0.1414  0.0516
 2748SOL    HW210990   0.309   1.570   4.238  0.4694 -0.5677 -0.3359
 2748SOL    HW310991   0.446   1.589   4.177 -0.2190 -2.0764 -2.4523
 2748SOL    MW410992   0.361   1.609   4.181  0.2358 -0.2448 -0.3299
 2749SOL     OW10993   0.193   3.862   4.119 -0.4219  0.6680  0.9963
 2749SOL    HW210994   0.265   3.915   4.153 -0.6356  0.7303  1.3451
 2749SOL    HW310995   0.201   3.778   4.164  0.8397 -0.1388 -0.6540
 2749SOL    MW410996   0.204   3.858   4.129 -0.2837  0.5698  0.8246
 2750SOL     OW10997   0.627   4.322   4.516  0.7527  0.2306  0.5641
 2750SOL    HW210998   0.693   4.274   4.565  0.8784  1.8818  2.0760
 2750SOL    HW310999   0.544   4.297   4.557  0.8026  1.1258  1.2292
 2750SOL    MW411000   0.625   4.312   4.528  0.7759  0.5665  0.8513
 2751SOL     OW11001   0.695   2.947   4.443  0.3130  0.1915 -0.0554
 2751SOL    HW211002   0.708   2.893   4.365  1.8800 -0.4385  0.6176
 2751SOL    HW311003   0.600   2.952   4.453  0.0477  1.6444 -2.9178
 2751SOL    MW411004   0.684   2.941   4.434  0.4848  0.3001 -0.3443
 2752SOL     OW11005   4.364   2.382   4.532  0.4666 -0.2014 -0.2089
 2752SOL    HW211006   4.393   2.425   4.452  0.1084  1.2675  0.4332
 2752SOL    HW311007   4.437   2.327   4.559  0.8414 -0.1741 -1.1608
 2752SOL    MW411008   4.377   2.380   4.525  0.4688 -0.0040 -0.2498
 2753SOL     OW11009   1.927   2.503   4.499 -0.3071  0.2558 -0.2083
 2753SOL    HW211010   1.981   2.425   4.511  1.2662  1.3346 -0.0149
 2753SOL    HW311011   1.887   2.493   4.413  0.9637 -0.1437 -0.7627
 2753SOL    MW411012   1.929   2.492   4.490  0.0682  0.3455 -0.2559
 2754SOL     OW11013   1.302   2.968   4.873 -0.3857  0.2204  0.0740
 2754SOL    HW211014   1.210   2.992   4.876 -0.2858  0.5348  0.8936
 2754SOL    HW311015   1.303   2.875   4.895 -0.7112 -0.3757 -2.3855
 2754SOL    MW411016   1.290   2.959   4.877 -0.4155  0.1833 -0.1424
 2755SOL     OW11017   3.595   2.701   4.104  0.2181 -0.0778 -0.3456
 2755SOL    HW211018   3.677   2.742   4.130  0.7678 -0.9854 -0.6152
 2755SOL    HW311019   3.599   2.699   4.008  0.0484 -0.4531 -0.3471
 2755SOL    MW411020   3.606   2.706   4.095  0.2683 -0.2471 -0.3813
 2756SOL     OW11021   0.284   2.146   4.462 -0.7550 -0.2499 -0.1500
 2756SOL    HW211022   0.266   2.200   4.385  0.2774  0.5445  0.1502
 2756SOL    HW311023   0.362   2.185   4.500  0.5839 -2.5249 -0.4541
 2756SOL    MW411024   0.292   2.158   4.457 -0.4422 -0.4452 -0.1505
 2757SOL     OW11025   2.674   3.409   4.477  0.4187  0.2160 -0.3737
 2757SOL    HW211026   2.697   3.348   4.407  1.5962  0.9665 -0.6477
 2757SOL    HW311027   2.758   3.429   4.520  0.0183  1.4861 -0.1592
 2757SOL    MW411028   2.688   3.403   4.474  0.5212  0.4826 -0.3816
 2758SOL     OW11029   2.235   2.700   4.178 -0.3523 -0.4463 -0.2072
 2758SOL    HW211030   2.309   2.754   4.208  1.1482 -1.2961 -2.1967
 2758SOL    HW311031   2.255   2.612   4.210 -2.2682 -0.0505  2.1492
 2758SOL    MW411032   2.248   2.695   4.186 -0.4071 -0.5062 -0.1588
 2759SOL     OW11033   2.524   2.057   4.220  0.3692  0.5666 -0.3756
 2759SOL    HW211034   2.510   2.036   4.313 -0.2843 -0.1274 -0.6287
 2759SOL    HW311035   2.598   2.002   4.195  0.0683  0.2068 -0.4655
 2759SOL    MW411036   2.532   2.047   4.229  0.2433  0.4276 -0.4208
 2760SOL     OW11037   1.754   4.016   4.246  0.4784  0.3407 -0.5501
 2760SOL    HW211038   1.777   4.104   4.216  0.9338  0.0736 -0.9922
 2760SOL    HW311039   1.777   4.014   4.338 -0.3650  0.9763 -0.3196
 2760SOL    MW411040   1.760   4.027   4.254  0.4272  0.3893 -0.5780
 2761SOL     OW11041   3.760   3.333   4.686 -0.0558 -0.4676  0.3110
 2761SOL    HW211042   3.825   3.262   4.689  0.4367 -0.0204  0.2572
 2761SOL    HW311043   3.688   3.297   4.634  0.7140 -0.5021 -0.7486
 2761SOL    MW411044   3.759   3.319   4.679  0.1107 -0.4131  0.1641
 2762SOL     OW11045   4.478   3.720   4.813  0.1137 -0.2468 -0.1325
 2762SOL    HW211046   4.421   3.724   4.737  0.8681  0.9677 -0.6598
 2762SOL    HW311047   4.453   3.796   4.866 -0.5902 -1.2336  0.9794
 2762SOL    MW411048   4.467   3.731   4.810  0.1203 -0.2168 -0.0554
 2763SOL     OW11049   0.682   4.395   4.248  0.0126 -0.0426  0.1839
 2763SOL    HW211050   0.686   4.488   4.224  1.0548  0.2089  1.2871
 2763SOL    HW311051   0.657   4.395   4.340 -0.5529 -0.8878  0.0396
 2763SOL    MW411052   0.679   4.407   4.257  0.0755 -0.1210  0.3104
 2764SOL     OW11053   1.989   0.514   4.311  0.5674  0.3552 -0.3120
 2764SOL    HW211054   2.057   0.470   4.261  1.0202 -0.0601  0.6557
 2764SOL    HW311055   1.970   0.594   4.262  0.3795 -0.4791 -1.5983
 2764SOL    MW411056   1.996   0.519   4.298  0.6024  0.1903 -0.3540
 2765SOL     OW11057   2.255   4.274   4.127  0.3384  0.1861  0.4562
 2765SOL    HW211058   2.258   4.186   4.163 -0.1509 -0.9253 -2.1340
 2765SOL    HW311059   2.188   4.319   4.178 -1.1225 -1.6873  0.2192
 2765SOL    MW411060   2.247   4.268   4.138  0.0811 -0.2077  0.0832
 2766SOL     OW11061   3.106   0.617   4.593  0.0541  0.0170 -0.1947
 2766SOL    HW211062   3.094   0.644   4.684  1.5210  1.1215 -0.3102
 2766SOL    HW311063   3.193   0.577   4.592 -0.7365 -1.7542 -0.7227
 2766SOL    MW411064   3.116   0.615   4.605  0.1433 -0.0710 -0.2796
 2767SOL     OW11065   1.309   0.890   4.203 -0.5984  0.0529 -0.3824
 2767SOL    HW211066   1.394   0.859   4.171 -1.0977  0.4341 -2.1008
 2767SOL    HW311067   1.245   0.834   4.159 -1.2847  0.1885  0.4250
 2767SOL    MW411068   1.312   0.878   4.193 -0.7548  0.1211 -0.5026
 2768SOL     OW11069   1.365   3.508   4.103  0.4159  0.0510  0.0517
 2768SOL    HW211070   1.285   3.546   4.139  0.7485  1.6778 -0.8656
 2768SOL    HW311071   1.344   3.490   4.012  1.0056  0.2114 -0.1149
 2768SOL    MW411072   1.352   3.511   4.096  0.5376  0.2868 -0.0913
 2769SOL     OW11073   3.329   2.113   4.572  0.2587  0.4238 -0.2914
 2769SOL    HW211074   3.236   2.119   4.596  0.2300 -0.4458 -0.1806
 2769SOL    HW311075   3.356   2.204   4.561 -0.8437  0.6494 -1.2412
 2769SOL    MW411076   3.320   2.126   4.574  0.1095  0.3389 -0.4021
 2770SOL     OW11077   2.421   0.010   4.186 -0.2125  0.1704  0.4034
 2770SOL    HW211078   2.413  -0.078   4.224 -0.7386 -0.3055 -0.7912
 2770SOL    HW311079   2.352   0.061   4.230 -0.1570 -0.1086  0.8195
 2770SOL    MW411080   2.411   0.005   4.197 -0.2746  0.0708  0.3007
 2771SOL     OW11081   1.795   1.705   4.670  0.2041 -0.3101  0.4078
 2771SOL    HW211082   1.842   1.773   4.622 -0.3915 -0.0030  0.2516
 2771SOL    HW311083   1.851   1.628   4.664  0.6377  0.0217  0.1392
 2771SOL    MW411084   1.809   1.704   4.663  0.1828 -0.2258  0.3517
 2772SOL     OW11085   1.764   2.089   4.525 -0.0556  0.0531  0.0261
 2772SOL    HW211086   1.822   2.018   4.499 -1.8377 -0.5367 -2.4952
 2772SOL    HW311087   1.700   2.048   4.583 -0.1291 -0.0409 -0.1239
 2772SOL    MW411088   1.763   2.074   4.530 -0.3004 -0.0371 -0.3263
 2773SOL     OW11089   4.113   4.457   4.601  0.5347 -0.4298 -0.2213
 2773SOL    HW211090   4.188   4.407   4.569  1.1969  0.2128  0.3011
 2773SOL    HW311091   4.097   4.422   4.689  0.3424 -0.4391 -0.2603
 2773SOL    MW411092   4.121   4.446   4.609  0.5967 -0.3462 -0.1575
 2774SOL     OW11093   0.406   4.147   4.657 -0.3817  0.2946  0.1651
 2774SOL    HW211094   0.462   4.117   4.729 -2.0967  0.6651  1.6924
 2774SOL    HW311095   0.395   4.069   4.601  0.0821 -0.2913  0.8759
 2774SOL    MW411096   0.412   4.132   4.659 -0.5468  0.2662  0.4604
 2775SOL     OW11097   1.065   2.547   4.791  0.0947  0.3218  0.2009
 2775SOL    HW211098   1.024   2.585   4.714 -0.7535  1.6903  1.3095
 2775SOL    HW311099   0.996   2.493   4.831  0.2904  0.2502  0.4435
 2775SOL    MW411100   1.050   2.545   4.786  0.0086  0.4929  0.3792
 2776SOL     OW11101   2.669   0.101   4.237 -0.2403  0.9203  0.1798
 2776SOL    HW211102   2.674   0.187   4.195  0.3192  1.3129  1.0252
 2776SOL    HW311103   2.582   0.069   4.215  0.4006  0.6704 -2.1045
 2776SOL    MW411104   2.658   0.108   4.229 -0.0819  0.9391 -0.0100
 2777SOL     OW11105   3.546   0.736   4.506 -0.4907 -0.4230  0.4453
 2777SOL    HW211106   3.622   0.727   4.564 -1.0320 -0.2771  1.1986
 2777SOL    HW311107   3.500   0.813   4.540 -0.6567 -0.1634 -0.3702
 2777SOL    MW411108   3.550   0.745   4.518 -0.5840 -0.3695  0.4371
 2778SOL     OW11109   2.917   0.454   4.165  0.0910 -0.1661 -0.1076
 2778SOL    HW211110   2.916   0.465   4.260  1.2036 -0.1525 -0.0926
 2778SOL    HW311111   2.933   0.542   4.131 -1.2533 -0.0109 -0.3405
 2778SOL    MW411112   2.919   0.467   4.173  0.0605 -0.1438 -0.1364
 2779SOL     OW11113   0.703   3.455   4.505  0.1063 -0.1377  0.1475
 2779SOL    HW211114   0.690   3.487   4.415 -0.9998  0.5581  0.5452
 2779SOL    HW311115   0.761   3.380   4.495 -1.2350 -1.0204 -1.3427
 2779SOL    MW411116   0.709   3.449   4.492 -0.2166 -0.1623  0.0034
 2780SOL     OW11117   2.173   4.037   4.530 -0.5838 -0.2534 -0.0386
 2780SOL    HW211118   2.206   3.951   4.556 -0.8585  0.1897  1.7913
 2780SOL    HW311119   2.078   4.029   4.535 -0.6286 -0.0371 -0.4987
 2780SOL    MW411120   2.165   4.025   4.534 -0.6259 -0.1664  0.1422
 2781SOL     OW11121   0.791   3.669   4.716  0.5499  0.1896  0.3565
 2781SOL    HW211122   0.773   3.609   4.643 -0.5398 -0.2007  0.9311
 2781SOL    HW311123   0.708   3.714   4.731  0.8059  0.3734  1.2608
 2781SOL    MW411124   0.777   3.667   4.708  0.4399  0.1623  0.5516
 2782SOL     OW11125   0.227   0.891   4.559  0.2590 -0.2394  0.3634
 2782SOL    HW211126   0.298   0.827   4.560 -0.1579 -0.7249 -0.1991
 2782SOL    HW311127   0.269   0.973   4.534  0.4839 -0.7112 -0.8513
 2782SOL    MW411128   0.242   0.893   4.556  0.2337 -0.3657  0.1289
 2783SOL     OW11129   3.405   3.022   4.649 -0.0296 -0.2460 -0.1657
 2783SOL    HW211130   3.446   3.087   4.592 -0.2332 -1.1286 -1.3481
 2783SOL    HW311131   3.437   3.043   4.737  1.3787  0.2775 -0.7908
 2783SOL    MW411132   3.414   3.034   4.653  0.1293 -0.2934 -0.4042
 2784SOL     OW11133   1.189   3.499   4.473 -0.2113  0.1317  0.1053
 2784SOL    HW211134   1.147   3.528   4.554  0.1281 -0.5584  0.5290
 2784SOL    HW311135   1.278   3.535   4.477  0.2581 -1.0665  0.7000
 2784SOL    MW411136   1.195   3.508   4.484 -0.1046 -0.1175  0.2397
 2785SOL     OW11137   4.212   0.703   4.548 -0.6550  0.0863 -0.9270
 2785SOL    HW211138   4.288   0.761   4.548 -1.0187  0.5554 -1.5539
 2785SOL    HW311139   4.249   0.616   4.563 -0.1680  0.5409  0.6181
 2785SOL    MW411140   4.227   0.699   4.550 -0.6387  0.2082 -0.8059
 2786SOL     OW11141   4.291   2.323   4.153  0.1551 -0.2951 -0.0013
 2786SOL    HW211142   4.218   2.371   4.191  0.3711  0.3311 -0.3737
 2786SOL    HW311143   4.369   2.372   4.179  0.3450 -0.1755 -0.7828
 2786SOL    MW411144   4.292   2.335   4.161  0.2087 -0.1967 -0.1535
 2787SOL     OW11145   1.169   3.895   4.640 -0.2504 -0.2826 -0.2251
 2787SOL    HW211146   1.186   3.978   4.685  0.0690  0.0393 -0.9343
 2787SOL    HW311147   1.074   3.893   4.630 -0.2651 -0.0274 -0.1621
 2787SOL    MW411148   1.159   3.906   4.645 -0.2102 -0.2065 -0.3104
 2788SOL     OW11149   3.151   3.307   4.517  0.7508  0.4611  0.6263
 2788SOL    HW211150   3.174   3.281   4.428 -0.2085  1.6214  0.0370
 2788SOL    HW311151   3.235   3.335   4.556  1.0281  0.7567 -0.1788
 2788SOL    MW411152   3.165   3.307   4.510  0.6608  0.6532  0.4423
 2789SOL     OW11153   0.553   3.832   4.759  0.1825 -0.0541 -0.0651
 2789SOL    HW211154   0.521   3.864   4.675 -2.8915  2.0554  1.7879
 2789SOL    HW311155   0.481   3.777   4.792  1.0522 -0.2900  1.4875
 2789SOL    MW411156   0.539   3.829   4.753 -0.1083  0.1931  0.3843
 2790SOL     OW11157   1.408   3.883   4.487 -0.0343 -0.0763 -0.2715
 2790SOL    HW211158   1.395   3.932   4.405 -0.0105 -1.2443 -0.9889
 2790SOL    HW311159   1.324   3.888   4.531 -0.7795 -1.4476 -1.4930
 2790SOL    MW411160   1.395   3.891   4.482 -0.1295 -0.4113 -0.5273
 2791SOL     OW11161   1.110   0.090   4.524 -0.3779  0.0042 -0.4923
 2791SOL    HW211162   1.133  -0.002   4.532  0.7053  0.4223  1.4889
 2791SOL    HW311163   1.016   0.093   4.546 -0.5058 -0.6664 -0.9401
 2791SOL    MW411164   1.100   0.078   4.528 -0.2519 -0.0291 -0.2900
 2792SOL     OW11165   0.600   4.094   4.856 -0.0291  0.1137  0.0235
 2792SOL    HW211166   0.588   4.000   4.844  0.8106  0.0369 -0.2989
 2792SOL    HW311167   0.553   4.116   4.936 -1.3054 -0.3494 -0.5923
 2792SOL    MW411168   0.593   4.085   4.865 -0.0867  0.0425 -0.1003
 2793SOL     OW11169   2.249   4.578   4.681 -0.1320 -0.1526  0.1267
 2793SOL    HW211170   2.237   4.486   4.658 -0.6881  0.5309 -2.4815
 2793SOL    HW311171   2.343   4.588   4.694  0.3102 -0.4344 -2.6437
 2793SOL    MW411172   2.259   4.567   4.680 -0.1470 -0.0996 -0.5830
 2794SOL     OW11173   3.828   0.492   4.285 -0.3061 -0.1259 -0.1879
 2794SOL    HW211174   3.843   0.581   4.254  2.2056 -0.8006 -1.0351
 2794SOL    HW311175   3.859   0.492   4.375 -0.4857 -0.0888 -0.1269
 2794SOL    MW411176   3.834   0.504   4.293  0.0016 -0.2100 -0.2916
 2795SOL     OW11177   3.579   4.228   4.177 -0.1343 -0.1451 -0.7626
 2795SOL    HW211178   3.572   4.160   4.244  1.0313  0.6837  0.2122
 2795SOL    HW311179   3.517   4.295   4.206  0.2662  0.1494 -0.5956
 2795SOL    MW411180   3.570   4.228   4.190  0.0723  0.0031 -0.6120
 2796SOL     OW11181   2.834   0.283   4.640 -0.3357  0.6222  0.1090
 2796SOL    HW211182   2.877   0.334   4.571 -1.1119 -0.2804 -1.0542
 2796SOL    HW311183   2.793   0.349   4.696  1.7456  1.4564  0.7200
 2796SOL    MW411184   2.834   0.299   4.638 -0.1635  0.6131  0.0361
 2797SOL     OW11185   1.995   0.008   4.141 -0.1762 -0.3521  0.8576
 2797SOL    HW211186   2.015  -0.081   4.168 -0.9066 -0.4889  0.9473
 2797SOL    HW311187   2.013   0.009   4.047 -0.9041 -0.8089  0.7073
 2797SOL    MW411188   2.000  -0.004   4.132 -0.3686 -0.4304  0.8496
 2798SOL     OW11189   3.769   0.602   4.704  0.7926  0.3959  0.0240
 2798SOL    HW211190   3.781   0.695   4.726 -0.7059  0.3823  0.9786
 2798SOL    HW311191   3.843   0.581   4.647  1.4529  2.0325  0.2514
 2798SOL    MW411192   3.780   0.612   4.700  0.6820  0.6101  0.1800
 2799SOL     OW11193   3.014   0.820   4.786 -0.3591 -0.3409 -0.0660
 2799SOL    HW211194   2.963   0.742   4.810 -1.7602  0.6353  0.2122
 2799SOL    HW311195   2.962   0.861   4.717 -0.0953  0.8177  0.4199
 2799SOL    MW411196   3.000   0.815   4.780 -0.5092 -0.0593  0.0348
 2800SOL     OW11197   0.897   2.688   4.089 -0.1063 -0.3726  0.0438
 2800SOL    HW211198   0.901   2.604   4.134  1.5800 -1.3496 -1.8974
 2800SOL    HW311199   0.971   2.738   4.124 -0.8591  0.1897  0.8827
 2800SOL    MW411200   0.907   2.684   4.100  0.0169 -0.4273 -0.1016
 2801SOL     OW11201   3.250   0.039   4.568 -0.0408  1.1012 -0.1496
 2801SOL    HW211202   3.171   0.058   4.618 -0.3742  0.8786 -0.5866
 2801SOL    HW311203   3.313   0.105   4.597 -0.2174  0.9394  0.5948
 2801SOL    MW411204   3.248   0.051   4.578 -0.1081  1.0504 -0.1091
 2802SOL     OW11205   4.282   2.058   4.539 -0.1011  0.4362  0.0070
 2802SOL    HW211206   4.303   1.966   4.554  0.6788 -0.0590 -3.6649
 2802SOL    HW311207   4.367   2.103   4.541 -0.0810  0.5109 -1.5083
 2802SOL    MW411208   4.296   2.052   4.541  0.0045  0.3807 -0.6774
 2803SOL     OW11209   1.569   4.399   4.305  0.2296  0.0080 -0.0902
 2803SOL    HW211210   1.487   4.354   4.285  0.1997  0.3661 -0.7938
 2803SOL    HW311211   1.564   4.481   4.256  1.0904 -0.0543 -0.2890
 2803SOL    MW411212   1.558   4.404   4.296  0.3392  0.0470 -0.2092
 2804SOL     OW11213   2.483   2.020   4.494  0.5051 -0.1171  0.3156
 2804SOL    HW211214   2.430   2.092   4.527  1.2259 -0.4832  2.3512
 2804SOL    HW311215   2.573   2.042   4.521  0.7605 -1.6482  0.7705
 2804SOL    MW411216   2.488   2.032   4.502  0.6339 -0.3674  0.6442
 2805SOL     OW11217   0.925   1.853   4.562 -0.5025 -0.0148  0.5134
 2805SOL    HW211218   0.854   1.917   4.554 -0.4377 -0.0062  0.0454
 2805SOL    HW311219   1.005   1.902   4.541 -0.5108 -0.3823 -0.3838
 2805SOL    MW411220   0.926   1.868   4.559 -0.4950 -0.0622  0.3332
 2806SOL     OW11221   1.152   2.300   4.120 -0.0634  0.7214 -0.2000
 2806SOL    HW211222   1.236   2.322   4.160  0.1905  0.5574 -0.6415
 2806SOL    HW311223   1.088   2.353   4.167  0.1056 -0.2425  1.1317
 2806SOL    MW411224   1.155   2.310   4.131 -0.0076  0.5726 -0.0825
 2807SOL     OW11225   2.005   2.860   4.257  0.1642 -0.0658 -0.4325
 2807SOL    HW211226   1.973   2.855   4.347  0.7888  1.6649 -0.0959
 2807SOL    HW311227   2.073   2.794   4.251 -0.0995 -0.3968  0.2753
 2807SOL    MW411228   2.010   2.851   4.268  0.2118  0.1189 -0.2947
 2808SOL     OW11229   2.503   3.131   4.178 -0.0665 -0.6232 -0.3520
 2808SOL    HW211230   2.435   3.186   4.217 -0.7598 -1.7500  0.0707
 2808SOL    HW311231   2.482   3.043   4.209  2.5636 -0.7659  1.1982
 2808SOL    MW411232   2.491   3.127   4.188  0.1891 -0.7907 -0.0917
 2809SOL     OW11233   4.379   1.178   4.521  0.2608 -0.3281  0.3074
 2809SOL    HW211234   4.301   1.189   4.575  0.6753 -0.4209  0.9234
 2809SOL    HW311235   4.363   1.233   4.444  0.0018  0.3958  0.8746
 2809SOL    MW411236   4.367   1.186   4.518  0.2813 -0.2448  0.4635
 2810SOL     OW11237   2.253   4.035   4.263 -0.3261  0.3693 -0.0430
 2810SOL    HW211238   2.175   3.986   4.237  0.3414 -0.3322 -0.7723
 2810SOL    HW311239   2.242   4.051   4.356 -2.0268  1.5283 -0.4274
 2810SOL    MW411240   2.241   4.031   4.272 -0.4624  0.4297 -0.1899
 2811SOL     OW11241   2.387   1.772   4.476 -0.1384  0.3105 -0.2686
 2811SOL    HW211242   2.427   1.858   4.474  2.2101 -0.7633 -0.5395
 2811SOL    HW311243   2.460   1.711   4.485 -1.8479 -1.5908  1.2466
 2811SOL    MW411244   2.402   1.775   4.477 -0.0541 -0.0820 -0.1044
 2812SOL     OW11245   2.008   3.647   4.270 -0.2128  0.1022  0.5642
 2812SOL    HW211246   1.933   3.597   4.239 -0.7469  0.9989  0.4101
 2812SOL    HW311247   2.000   3.732   4.228  1.1913  0.0297  0.1145
 2812SOL    MW411248   1.997   3.652   4.261 -0.0980  0.2109  0.4845
 2813SOL     OW11249   4.284   4.596   4.147  0.4933 -0.2415  0.1857
 2813SOL    HW211250   4.278   4.509   4.187 -3.0932 -0.3445 -0.4839
 2813SOL    HW311251   4.216   4.647   4.190  0.9839  1.5763 -1.1422
 2813SOL    MW411252   4.274   4.591   4.158  0.0849 -0.0153 -0.0779
 2814SOL     OW11253   2.592   0.900   4.460  0.1537  0.8884  0.0184
 2814SOL    HW211254   2.668   0.935   4.506  0.0776 -1.1044  1.6934
 2814SOL    HW311255   2.615   0.906   4.367  2.5195 -0.0841  0.5218
 2814SOL    MW411256   2.605   0.906   4.454  0.4558  0.4972  0.3059
 2815SOL     OW11257   4.290   4.280   4.868  0.0008  0.2826  0.8795
 2815SOL    HW211258   4.367   4.321   4.829 -0.1523 -0.4921 -0.2975
 2815SOL    HW311259   4.323   4.198   4.905 -0.4621 -0.7152 -0.8397
 2815SOL    MW411260   4.304   4.274   4.868 -0.0805  0.0488  0.4974
 2816SOL     OW11261   2.633   1.337   4.454  0.0679  0.5306 -0.0548
 2816SOL    HW211262   2.580   1.279   4.509 -0.2904  1.2889  0.4164
 2816SOL    HW311263   2.724   1.311   4.471 -0.0976  0.0105  0.0329
 2816SOL    MW411264   2.638   1.326   4.464 -0.0012  0.5620  0.0189
 2817SOL     OW11265   3.855   4.340   4.504 -0.0088  0.0919  0.1357
 2817SOL    HW211266   3.940   4.382   4.511  0.3027 -0.3849 -0.7834
 2817SOL    HW311267   3.837   4.337   4.410 -0.9712  0.0580  0.3161
 2817SOL    MW411268   3.864   4.345   4.493 -0.0947  0.0245  0.0382
 2818SOL     OW11269   2.441   0.755   4.130 -0.0894 -0.2221  0.1042
 2818SOL    HW211270   2.459   0.751   4.036 -0.5420 -1.2471  0.0469
 2818SOL    HW311271   2.453   0.665   4.160  1.9903  0.4499  1.4041
 2818SOL    MW411272   2.445   0.742   4.121  0.1253 -0.2687  0.2681
 2819SOL     OW11273   4.489   4.457   4.671 -0.1889 -0.2913 -0.3468
 2819SOL    HW211274   4.485   4.538   4.619 -1.7373 -0.4037 -0.4052
 2819SOL    HW311275   4.583   4.436   4.674  0.1750  1.2190 -0.7698
 2819SOL    MW411276   4.501   4.465   4.664 -0.3452 -0.1068 -0.4103
 2820SOL     OW11277   2.755   3.243   4.256  0.0805  0.0603 -0.0618
 2820SOL    HW211278   2.678   3.192   4.231 -1.4286  0.9999  2.4929
 2820SOL    HW311279   2.748   3.324   4.206 -1.1166  0.5303  0.8403
 2820SOL    MW411280   2.744   3.247   4.246 -0.2765  0.2463  0.3943
 2821SOL     OW11281   3.360   0.937   4.553 -0.5870  0.1811 -0.0354
 2821SOL    HW211282   3.278   0.900   4.520  0.2059 -1.0131 -0.7031
 2821SOL    HW311283   3.366   1.023   4.512 -0.7478 -0.3513 -1.1939
 2821SOL    MW411284   3.350   0.944   4.544 -0.5036 -0.0467 -0.2763
 2822SOL     OW11285   2.460   0.471   4.221 -0.4581 -0.0542  0.7073
 2822SOL    HW211286   2.524   0.422   4.169 -0.1363  1.6758 -0.5836
 2822SOL    HW311287   2.375   0.448   4.183 -0.2486  0.9522 -0.3882
 2822SOL    MW411288   2.457   0.461   4.209 -0.3880  0.3068  0.3925
 2823SOL     OW11289   1.607   1.309   4.516 -0.2486 -0.3482 -0.2221
 2823SOL    HW211290   1.692   1.265   4.512  0.0858  0.3140 -0.3930
 2823SOL    HW311291   1.628   1.402   4.513 -0.9414 -0.1693  0.4712
 2823SOL    MW411292   1.621   1.315   4.515 -0.2959 -0.2372 -0.1532
 2824SOL     OW11293   3.825   0.753   4.185 -0.3291  0.1832  0.5284
 2824SOL    HW211294   3.739   0.789   4.208  0.2606  2.1819 -0.3120
 2824SOL    HW311295   3.826   0.752   4.090  0.6067  0.2717  0.5294
 2824SOL    MW411296   3.814   0.758   4.176 -0.1278  0.4586  0.4177
 2825SOL     OW11297   1.601   2.073   4.279  0.1781 -0.5153  0.2047
 2825SOL    HW211298   1.622   2.088   4.371 -0.0601  0.4722  0.0988
 2825SOL    HW311299   1.595   2.160   4.240 -1.0037 -0.8871 -0.4643
 2825SOL    MW411300   1.603   2.086   4.286 -0.0092 -0.4341  0.1025
 2826SOL     OW11301   1.500   4.231   4.666  0.2723  0.2759  0.5603
 2826SOL    HW211302   1.485   4.319   4.632 -0.1685 -0.6112 -1.5860
 2826SOL    HW311303   1.414   4.201   4.695  0.0010 -0.3435 -0.8860
 2826SOL    MW411304   1.487   4.239   4.666  0.1783  0.0771  0.0863
 2827SOL     OW11305   0.893   3.914   4.581  0.3771  0.2510 -0.5225
 2827SOL    HW211306   0.847   3.995   4.605  0.7486  0.3356 -0.0808
 2827SOL    HW311307   0.855   3.847   4.639  1.5802  0.5410  0.6158
 2827SOL    MW411308   0.882   3.916   4.592  0.5848  0.3004 -0.3140
 2828SOL     OW11309   4.043   1.666   4.303  0.4041  0.2945 -0.4887
 2828SOL    HW211310   4.048   1.751   4.259  0.1512  0.7416  0.3427
 2828SOL    HW311311   4.064   1.685   4.394  0.6144 -0.5818 -0.3543
 2828SOL    MW411312   4.047   1.680   4.309  0.3985  0.2379 -0.3612
 2829SOL     OW11313   2.618   1.627   4.459 -0.0974 -0.2093  0.0563
 2829SOL    HW211314   2.613   1.531   4.461  1.2521 -0.3239 -1.2053
 2829SOL    HW311315   2.694   1.648   4.514 -1.2139  0.2252  1.4494
 2829SOL    MW411316   2.628   1.617   4.467 -0.0666 -0.1671  0.0736
 2830SOL     OW11317   2.655   0.470   4.774  0.4873 -0.1944 -0.0532
 2830SOL    HW211318   2.574   0.470   4.824  1.4836  1.0374  1.5930
 2830SOL    HW311319   2.636   0.524   4.697  0.1146  1.0909  0.9368
 2830SOL    MW411320   2.642   0.477   4.770  0.5696  0.1377  0.2946
 2831SOL     OW11321   2.180   0.390   4.169 -0.0686 -0.5775 -0.3150
 2831SOL    HW211322   2.200   0.369   4.078 -0.1742 -2.3480  0.0498
 2831SOL    HW311323   2.194   0.308   4.216 -0.5751  0.1754  1.1775
 2831SOL    MW411324   2.184   0.377   4.163 -0.1494 -0.7117 -0.0700
 2832SOL     OW11325   0.918   2.425   4.230 -0.6531  0.7538  0.4807
 2832SOL    HW211326   0.916   2.408   4.324  0.1462  2.1788  0.7728
 2832SOL    HW311327   0.843   2.376   4.195 -0.3588 -0.6027  1.7018
 2832SOL    MW411328   0.908   2.416   4.238 -0.5088  0.7629  0.6803
 2833SOL     OW11329   1.335   1.823   4.628  0.3676  0.0607 -0.1263
 2833SOL    HW211330   1.282   1.787   4.700  1.1549 -0.9267 -0.0341
 2833SOL    HW311331   1.278   1.887   4.587 -0.6550 -0.4725  0.4263
 2833SOL    MW411332   1.320   1.826   4.632  0.3366 -0.1399 -0.0412
 2834SOL     OW11333   3.798   0.874   4.712  0.6680  0.4425  0.4725
 2834SOL    HW211334   3.750   0.951   4.679  0.4739  0.2389  0.2762
 2834SOL    HW311335   3.882   0.877   4.666  0.2809 -0.0084 -0.2669
 2834SOL    MW411336   3.802   0.885   4.702  0.5913  0.3561  0.3491
 2835SOL     OW11337   3.186   0.074   4.270  0.1290 -0.0053  0.1412
 2835SOL    HW211338   3.093   0.049   4.278 -0.1006  0.8803  0.3246
 2835SOL    HW311339   3.219   0.072   4.360  0.1219  0.2650  0.1528
 2835SOL    MW411340   3.178   0.071   4.283  0.0978  0.1472  0.1669
 2836SOL     OW11341   1.112   1.587   4.157 -0.2485 -0.3024  0.4677
 2836SOL    HW211342   1.120   1.560   4.248  2.0231 -1.5765 -0.0782
 2836SOL    HW311343   1.196   1.626   4.136 -0.9254  0.4283 -0.9528
 2836SOL    MW411344   1.124   1.589   4.166 -0.0381 -0.3741  0.2082
 2837SOL     OW11345   2.962   3.520   4.505 -0.0012 -0.0634  0.0693
 2837SOL    HW211346   3.025   3.448   4.506  0.3292  0.2293  0.3187
 2837SOL    HW311347   3.011   3.596   4.534 -0.0684  0.4919 -1.2090
 2837SOL    MW411348   2.976   3.521   4.509  0.0336  0.0485 -0.0665
 2838SOL     OW11349   3.569   1.549   4.703 -0.1086  0.2613  0.8657
 2838SOL    HW211350   3.632   1.485   4.670 -0.9856 -0.3114  0.2815
 2838SOL    HW311351   3.536   1.593   4.625 -1.3823 -0.3337  1.0656
 2838SOL    MW411352   3.573   1.547   4.688 -0.3924  0.1072  0.8150
 2839SOL     OW11353   1.090   3.877   4.153  0.4023 -0.0905 -0.5637
 2839SOL    HW211354   1.164   3.919   4.197 -0.5353 -0.3958  1.3540
 2839SOL    HW311355   1.099   3.784   4.174  0.3241 -0.3419 -1.6045
 2839SOL    MW411356   1.101   3.870   4.161  0.2683 -0.1639 -0.4480
 2840SOL     OW11357   1.304   0.566   4.566 -0.1741  0.2442 -0.2462
 2840SOL    HW211358   1.238   0.502   4.539 -1.0527  0.8738  0.4017
 2840SOL    HW311359   1.266   0.651   4.544  0.6708  0.5876 -0.4121
 2840SOL    MW411360   1.290   0.568   4.559 -0.1785  0.3726 -0.1826
 2841SOL     OW11361   3.583   1.993   4.586 -0.2541 -0.1363 -0.5653
 2841SOL    HW211362   3.497   2.034   4.594  0.3949  0.8577  1.5522
 2841SOL    HW311363   3.638   2.061   4.546 -0.5887 -1.0269 -2.6353
 2841SOL    MW411364   3.579   2.008   4.582 -0.2126 -0.1226 -0.5590
 2842SOL     OW11365   1.442   3.602   4.488 -0.5385 -0.0034 -0.0560
 2842SOL    HW211366   1.428   3.696   4.493  2.2407  0.4673  0.1301
 2842SOL    HW311367   1.488   3.589   4.405 -1.7942 -1.3470 -0.5748
 2842SOL    MW411368   1.447   3.612   4.478 -0.3375 -0.1186 -0.0999
 2843SOL     OW11369   3.207   0.257   4.868 -1.0422 -0.0297  0.0546
 2843SOL    HW211370   3.282   0.264   4.809 -0.7772 -0.9614  0.2746
 2843SOL    HW311371   3.239   0.285   4.953 -1.3130  0.9020 -0.1435
 2843SOL    MW411372   3.221   0.261   4.871 -1.0429 -0.0297  0.0575
 2844SOL     OW11373   4.283   2.067   4.257 -0.7879  0.4337 -0.6670
 2844SOL    HW211374   4.295   2.068   4.352  0.4879  0.5824 -0.8263
 2844SOL    HW311375   4.287   2.159   4.231 -0.2864  0.3333 -0.9608
 2844SOL    MW411376   4.285   2.079   4.266 -0.5534  0.4401 -0.7268
 2845SOL     OW11377   3.801   2.821   4.236  0.1059 -0.6201 -0.1014
 2845SOL    HW211378   3.802   2.864   4.321 -0.1979  2.3795 -1.5566
 2845SOL    HW311379   3.887   2.779   4.229  0.4468 -0.1786  1.3306
 2845SOL    MW411380   3.813   2.821   4.246  0.1108 -0.1661 -0.1045
 2846SOL     OW11381   3.602   1.128   4.670 -0.5709  0.4026  0.0408
 2846SOL    HW211382   3.533   1.142   4.606 -0.9604  1.2381  0.6390
 2846SOL    HW311383   3.557   1.126   4.754  0.0790  0.4842  0.3940
 2846SOL    MW411384   3.587   1.130   4.673 -0.5366  0.5236  0.1663
 2847SOL     OW11385   1.415   2.461   4.536 -0.0026 -0.7007 -0.1347
 2847SOL    HW211386   1.384   2.441   4.448 -1.2360 -1.1138  0.3903
 2847SOL    HW311387   1.500   2.417   4.541 -0.8478 -2.3926 -0.4215
 2847SOL    MW411388   1.422   2.452   4.525 -0.2769 -0.9784 -0.1033
 2848SOL     OW11389   3.345   0.484   4.282 -0.0234  0.0296  0.1653
 2848SOL    HW211390   3.420   0.428   4.262  0.2055  0.2611  0.3768
 2848SOL    HW311391   3.269   0.434   4.252  0.3699  0.6831 -1.9761
 2848SOL    MW411392   3.345   0.470   4.276  0.0586  0.1464 -0.0894
 2849SOL     OW11393   1.863   1.210   4.481  0.1038 -0.1741 -0.0619
 2849SOL    HW211394   1.917   1.212   4.402 -0.7759 -0.7625 -0.6958
 2849SOL    HW311395   1.862   1.118   4.506 -1.3490 -0.3249 -0.5985
 2849SOL    MW411396   1.870   1.198   4.474 -0.2040 -0.2716 -0.2163
 2850SOL     OW11397   3.145   4.035   4.253 -0.1895 -0.3658  0.1511
 2850SOL    HW211398   3.129   4.128   4.238  0.7584 -0.2790 -0.3444
 2850SOL    HW311399   3.063   3.992   4.227 -0.1887  0.2242 -0.8428
 2850SOL    MW411400   3.132   4.041   4.247 -0.0643 -0.2765 -0.0454
 2851SOL     OW11401   0.701   0.654   4.501  0.3195 -0.0476 -0.0974
 2851SOL    HW211402   0.764   0.725   4.487  1.2208 -0.7347  0.3723
 2851SOL    HW311403   0.689   0.616   4.415  0.3324  0.2660 -0.2402
 2851SOL    MW411404   0.708   0.658   4.488  0.4401 -0.0969 -0.0542
 2852SOL     OW11405   3.724   1.357   4.555 -0.4054 -0.0554  0.3925
 2852SOL    HW211406   3.818   1.378   4.555 -0.6006  0.8606  1.1677
 2852SOL    HW311407   3.715   1.287   4.619 -0.1973 -0.3537  0.0919
 2852SOL    MW411408   3.735   1.351   4.564 -0.4037  0.0261  0.4551
 2853SOL     OW11409   0.028   0.279   4.642 -0.4494 -0.6258  0.1032
 2853SOL    HW211410  -0.049   0.336   4.649 -0.0728 -0.2919  1.6866
 2853SOL    HW311411   0.101   0.339   4.626 -0.6408 -1.0238 -2.5089
 2853SOL    MW411412   0.028   0.294   4.641 -0.4250 -0.6343 -0.0325
 2854SOL     OW11413   4.417   0.045   4.519 -0.1478 -0.2502 -0.1836
 2854SOL    HW211414   4.441   0.114   4.580  1.1838 -1.1613  0.3535
 2854SOL    HW311415   4.440   0.079   4.432 -1.0603  0.6278 -0.0900
 2854SOL    MW411416   4.423   0.058   4.515 -0.0925 -0.2546 -0.1004
 2855SOL     OW11417   0.460   3.219   4.263 -0.3517 -0.2255 -0.0563
 2855SOL    HW211418   0.521   3.204   4.190  0.6821  0.0167  0.7575
 2855SOL    HW311419   0.378   3.181   4.232  0.1822 -0.4982 -1.1943
 2855SOL    MW411420   0.457   3.212   4.249 -0.1449 -0.2295 -0.0991
 2856SOL     OW11421   3.851   3.078   4.142  0.0585  0.3460 -0.5914
 2856SOL    HW211422   3.837   2.987   4.169  0.1427  0.1181 -1.2959
 2856SOL    HW311423   3.858   3.074   4.046  0.7231  1.0078 -0.5783
 2856SOL    MW411424   3.850   3.065   4.133  0.1573  0.4032 -0.6826
 2857SOL     OW11425   3.840   2.290   4.153 -0.4281 -0.1697  0.0278
 2857SOL    HW211426   3.766   2.339   4.188 -0.4441  0.2678 -0.6187
 2857SOL    HW311427   3.844   2.314   4.061  0.2100 -0.5787 -0.0559
 2857SOL    MW411428   3.831   2.299   4.146 -0.3460 -0.1660 -0.0685
 2858SOL     OW11429   3.163   0.328   4.142  0.3438 -0.8492  0.7265
 2858SOL    HW211430   3.162   0.248   4.194 -1.3887 -1.0826  0.3596
 2858SOL    HW311431   3.076   0.365   4.153  0.9033  0.6329  0.3321
 2858SOL    MW411432   3.152   0.323   4.150  0.1890 -0.6844  0.6261
 2859SOL     OW11433   3.410   2.861   4.237 -0.0963 -0.1427  0.4928
 2859SOL    HW211434   3.487   2.822   4.197  0.0841 -0.7280  1.4103
 2859SOL    HW311435   3.417   2.840   4.330 -1.4152 -0.2954  0.5717
 2859SOL    MW411436   3.421   2.853   4.244 -0.2465 -0.2401  0.6242
 2860SOL     OW11437   0.893   1.578   4.525  0.4399  0.2718  0.4701
 2860SOL    HW211438   0.899   1.668   4.556 -1.2127  0.6711 -0.2877
 2860SOL    HW311439   0.984   1.550   4.513  0.9535  2.6260 -1.5228
 2860SOL    MW411440   0.906   1.586   4.528  0.2896  0.6351  0.1072
 2861SOL     OW11441   0.970   1.114   4.534 -0.3624 -0.3047 -0.4803
 2861SOL    HW211442   0.999   1.146   4.449  0.8418 -1.4950 -0.5372
 2861SOL    HW311443   1.051   1.095   4.581 -1.0350 -0.9898  0.4079
 2861SOL    MW411444   0.984   1.116   4.529 -0.2922 -0.5521 -0.3706
 2862SOL     OW11445   0.423   0.701   4.513 -0.1595  0.0747  0.2871
 2862SOL    HW211446   0.409   0.718   4.419  0.3395 -1.2554 -0.0368
 2862SOL    HW311447   0.515   0.678   4.520 -0.9100 -3.0641  0.5923
 2862SOL    MW411448   0.433   0.700   4.501 -0.1927 -0.5149  0.2846
 2863SOL     OW11449   3.093   1.473   4.597 -0.0078 -0.5832 -0.2842
 2863SOL    HW211450   3.136   1.529   4.532  0.5514 -1.5630 -0.7620
 2863SOL    HW311451   3.162   1.448   4.658 -0.2813 -0.6800 -0.0105
 2863SOL    MW411452   3.108   1.477   4.596  0.0299 -0.7252 -0.3111
 2864SOL     OW11453   0.440   3.368   4.504  0.4365  0.2844 -0.5721
 2864SOL    HW211454   0.531   3.391   4.520  0.7044 -0.3504 -1.1398
 2864SOL    HW311455   0.441   3.321   4.420 -0.5796  1.3244 -1.1766
 2864SOL    MW411456   0.452   3.365   4.495  0.3378  0.3379 -0.7268
 2865SOL     OW11457   0.489   0.358   4.194  0.3022  0.0993  0.0005
 2865SOL    HW211458   0.472   0.350   4.100 -0.3320 -0.0802  0.1235
 2865SOL    HW311459   0.490   0.267   4.225 -2.4615  0.2513  0.6609
 2865SOL    MW411460   0.487   0.345   4.186 -0.1461  0.0956  0.1039
 2866SOL     OW11461   1.070   3.634   4.735  0.3567 -0.2137  0.0505
 2866SOL    HW211462   1.112   3.719   4.721  0.6193 -0.1469  1.2078
 2866SOL    HW311463   0.977   3.653   4.745  0.1676 -0.2541 -1.4528
 2866SOL    MW411464   1.064   3.648   4.734  0.3664 -0.2103  0.0048
 2867SOL     OW11465   4.030   0.054   4.226  0.1521 -0.4181 -0.1400
 2867SOL    HW211466   4.048   0.147   4.211  2.3118 -0.7080  0.5689
 2867SOL    HW311467   4.041   0.042   4.320 -0.6295 -1.2909 -0.1540
 2867SOL    MW411468   4.034   0.065   4.237  0.3339 -0.5715 -0.0483
 2868SOL     OW11469   3.137   3.751   4.563 -1.0708  0.3284  0.1726
 2868SOL    HW211470   3.216   3.718   4.520 -0.9072 -0.8195  1.3166
 2868SOL    HW311471   3.153   3.844   4.574 -0.3079  0.2845 -0.5423
 2868SOL    MW411472   3.150   3.759   4.559 -0.9486  0.1711  0.2292
 2869SOL     OW11473   1.243   4.137   4.748  0.4788  0.2836 -0.1869
 2869SOL    HW211474   1.249   4.127   4.843 -1.6275  0.6313 -0.0107
 2869SOL    HW311475   1.185   4.212   4.735 -0.5582 -0.7777 -1.7776
 2869SOL    MW411476   1.236   4.145   4.759  0.0640  0.1894 -0.3735
 2870SOL     OW11477   0.251   4.371   4.587  0.2518  0.0720  0.0453
 2870SOL    HW211478   0.258   4.373   4.492 -1.1014  0.9241 -0.0505
 2870SOL    HW311479   0.293   4.289   4.613  2.3603  0.7346 -1.1199
 2870SOL    MW411480   0.258   4.360   4.578  0.3515  0.2719 -0.1211
 2871SOL     OW11481   2.065   3.552   4.542  0.2947  0.2319  0.0878
 2871SOL    HW211482   2.133   3.486   4.530 -2.7200 -2.7102 -1.5132
 2871SOL    HW311483   2.056   3.592   4.455 -1.1398 -0.5474 -0.1285
 2871SOL    MW411484   2.073   3.549   4.529 -0.2923 -0.2591 -0.1519
 2872SOL     OW11485   0.273   3.733   4.771  0.1079  0.0698 -0.0786
 2872SOL    HW211486   0.292   3.681   4.693  1.4233  0.4800 -0.0417
 2872SOL    HW311487   0.179   3.722   4.785  0.0514 -0.8305 -1.1243
 2872SOL    MW411488   0.263   3.725   4.763  0.2740  0.0052 -0.2117
 2873SOL     OW11489   0.050   1.991   4.831  0.2667  0.7753  0.2064
 2873SOL    HW211490   0.051   1.897   4.813 -2.5364  0.7129  0.1313
 2873SOL    HW311491   0.105   2.001   4.909 -0.2458 -1.0629  0.8316
 2873SOL    MW411492   0.058   1.980   4.839 -0.1708  0.5245  0.2790
 2874SOL     OW11493   2.043   2.376   4.137 -0.3037  0.0485 -0.0159
 2874SOL    HW211494   2.047   2.288   4.175  0.2269 -0.1836 -0.5994
 2874SOL    HW311495   2.019   2.361   4.046 -1.8841  0.6246  0.2957
 2874SOL    MW411496   2.041   2.362   4.130 -0.4422  0.0939 -0.0517
 2875SOL     OW11497   4.022   0.928   4.556  0.1170  0.2368 -0.1960
 2875SOL    HW211498   4.088   0.863   4.577  0.6616  1.0714  0.7014
 2875SOL    HW311499   4.025   0.936   4.460  2.2430  1.2196 -0.0719
 2875SOL    MW411500   4.031   0.921   4.546  0.4694  0.4766 -0.0612
 2876SOL     OW11501   0.049   2.726   4.160  0.5916  0.1138  0.2130
 2876SOL    HW211502  -0.034   2.758   4.193  0.6665  0.2861  0.2378
 2876SOL    HW311503   0.114   2.790   4.190  0.4685  1.0961 -1.5146
 2876SOL    MW411504   0.047   2.739   4.168  0.5852  0.2661 -0.0117
 2877SOL     OW11505   4.080   2.404   4.549  0.2079 -0.5603  0.0524
 2877SOL    HW211506   4.039   2.321   4.574  1.0797 -1.4056 -1.3299
 2877SOL    HW311507   4.174   2.388   4.554  0.4206  0.9837  1.8726
 2877SOL    MW411508   4.087   2.391   4.553  0.3510 -0.4681  0.1102
 2878SOL     OW11509   2.456   2.850   4.254 -0.0308 -0.0242  0.0613
 2878SOL    HW211510   2.538   2.807   4.228 -0.0108  0.0402  0.0163
 2878SOL    HW311511   2.444   2.825   4.346  1.4923  2.1835  0.9318
 2878SOL    MW411512   2.465   2.841   4.263  0.1728  0.2756  0.1702
 2879SOL     OW11513   0.473   0.875   4.247  0.0241  0.4428 -0.0934
 2879SOL    HW211514   0.472   0.960   4.203  0.3373 -0.1408 -1.2455
 2879SOL    HW311515   0.544   0.827   4.205 -0.3127 -0.4851  0.3790
 2879SOL    MW411516   0.483   0.880   4.235  0.0210  0.2434 -0.1830
 2880SOL     OW11517   0.265   2.864   4.265  0.7061 -0.1904  0.3058
 2880SOL    HW211518   0.316   2.786   4.245 -0.0617 -0.9127  1.1387
 2880SOL    HW311519   0.307   2.901   4.343  0.5887 -0.2074  0.3767
 2880SOL    MW411520   0.277   2.859   4.273  0.5893 -0.2879  0.4251
 2881SOL     OW11521   1.385   1.977   4.124 -0.3226 -0.3039  0.5775
 2881SOL    HW211522   1.305   2.010   4.165  0.1646  0.2825  1.0566
 2881SOL    HW311523   1.456   2.013   4.177  0.2739 -0.4702 -0.1045
 2881SOL    MW411524   1.384   1.986   4.136 -0.1796 -0.2485  0.5507
 2882SOL     OW11525   2.970   4.350   4.790  0.3510 -0.0882 -0.5107
 2882SOL    HW211526   3.047   4.359   4.734  1.5576 -1.9914  0.7760
 2882SOL    HW311527   2.937   4.262   4.770  0.7942 -0.7876  1.6990
 2882SOL    MW411528   2.976   4.339   4.780  0.5687 -0.4316 -0.0494
 2883SOL     OW11529   1.584   3.089   4.137  0.1843 -0.2890  0.5723
 2883SOL    HW211530   1.650   3.143   4.180 -0.2248 -0.0385  0.8890
 2883SOL    HW311531   1.502   3.134   4.154 -0.0739 -0.6205  0.2097
 2883SOL    MW411532   1.582   3.102   4.145  0.0963 -0.2997  0.5663
 2884SOL     OW11533   0.440   0.197   4.611 -0.0623  0.1066  0.3085
 2884SOL    HW211534   0.444   0.162   4.522  1.5915 -0.1845  0.4795
 2884SOL    HW311535   0.376   0.268   4.606 -0.6020 -0.4554 -0.9220
 2884SOL    MW411536   0.432   0.202   4.599  0.0847 -0.0060  0.1687
 2885SOL     OW11537   3.392   4.463   4.529 -0.1999 -0.5941  0.2124
 2885SOL    HW211538   3.481   4.476   4.562  0.7856 -0.8990 -2.2396
 2885SOL    HW311539   3.353   4.551   4.531  0.4956 -0.2829  0.3634
 2885SOL    MW411540   3.399   4.476   4.534  0.0219 -0.5933 -0.0912
 2886SOL     OW11541   4.111   3.963   4.566 -0.1959 -0.4674  0.2989
 2886SOL    HW211542   4.091   3.958   4.473 -1.4115 -2.2049  0.6211
 2886SOL    HW311543   4.059   4.037   4.597 -1.1819 -0.9793 -0.0885
 2886SOL    MW411544   4.101   3.972   4.558 -0.4864 -0.7642  0.2903
 2887SOL     OW11545   0.489   1.289   4.564  0.3005 -0.6251 -0.8045
 2887SOL    HW211546   0.465   1.382   4.559 -0.6992 -0.6455  2.7909
 2887SOL    HW311547   0.585   1.289   4.559  0.3058  0.5836 -0.9133
 2887SOL    MW411548   0.498   1.301   4.563  0.1693 -0.4683 -0.3445
 2888SOL     OW11549   2.018   2.240   4.543  0.1554  0.5679 -0.5704
 2888SOL    HW211550   1.941   2.202   4.586 -0.8857  1.4908 -1.5770
 2888SOL    HW311551   2.011   2.212   4.452  0.0166  2.1332 -1.0657
 2888SOL    MW411552   2.007   2.232   4.536 -0.0003  0.8962 -0.7686
 2889SOL     OW11553   0.561   2.564   4.607 -0.0849  0.5304 -0.7194
 2889SOL    HW211554   0.479   2.608   4.628 -0.0757 -0.1442  0.7904
 2889SOL    HW311555   0.629   2.624   4.639 -0.0561 -0.1559  0.5464
 2889SOL    MW411556   0.559   2.578   4.614 -0.0799  0.3508 -0.3532
   4.49070   4.66690  10.00000
