Gromacs Runs On Most of All Computer Systems in water
11524
    1DMSO    SD    1   3.969   3.930   4.636 -0.1553 -0.0662 -0.0089
    1DMSO   CD1    2   3.891   4.089   4.606 -0.2431 -0.5102 -0.0675
    1DMSO    OD    3   4.060   3.900   4.516 -0.6340 -0.1574  0.4346
    1DMSO   CD2    4   4.076   3.985   4.767 -0.5433 -0.1765  0.1071
    2SOL     OW    5   4.310   0.492   0.357  0.1022  0.3479  0.4199
    2SOL    HW2    6   4.395   0.527   0.333  0.0267 -0.1118 -0.5191
    2SOL    HW3    7   4.252   0.569   0.360  0.0243  0.3603 -1.2553
    2SOL    MW4    8   4.313   0.507   0.355  0.0820  0.2889  0.0750
    3SOL     OW    9   3.732   0.117   0.458  0.2488  0.3694  0.0832
    3SOL    HW2   10   3.807   0.056   0.460 -0.0730 -0.1065 -1.5759
    3SOL    HW3   11   3.757   0.183   0.393 -0.6146  0.4086 -0.2077
    3SOL    MW4   12   3.745   0.117   0.450  0.0925  0.3118 -0.1741
    4SOL     OW   13   4.106   0.268   0.320  0.0280  0.2170 -0.1430
    4SOL    HW2   14   4.173   0.336   0.311  0.1347  0.2293  0.7404
    4SOL    HW3   15   4.152   0.187   0.298 -0.1457  0.4436 -1.3768
    4SOL    MW4   16   4.121   0.266   0.316  0.0192  0.2485 -0.1892
    5SOL     OW   17   4.308   1.554   0.796 -0.1404  0.3369  0.3434
    5SOL    HW2   18   4.319   1.533   0.888  0.8999 -0.3889  0.0614
    5SOL    HW3   19   4.295   1.470   0.753  0.4589  0.5665 -0.3088
    5SOL    MW4   20   4.308   1.540   0.802  0.0759  0.2714  0.2201
    6SOL     OW   21   1.397   1.027   0.348 -0.2190  0.0875 -0.2269
    6SOL    HW2   22   1.327   1.023   0.414  0.1989  1.6142  0.3273
    6SOL    HW3   23   1.473   0.989   0.392  0.2182  1.6532  0.3975
    6SOL    MW4   24   1.398   1.021   0.362 -0.1062  0.4955 -0.0714
    7SOL     OW   25   0.065   0.590   0.223 -0.7925 -0.0589  0.6169
    7SOL    HW2   26   0.097   0.591   0.133  0.4978 -1.2053  1.0464
    7SOL    HW3   27   0.090   0.676   0.258 -0.7601  0.1604  0.0515
    7SOL    MW4   28   0.073   0.602   0.216 -0.6180 -0.1812  0.5990
    8SOL     OW   29   0.277   1.259   0.444 -0.0667  0.3570  0.2598
    8SOL    HW2   30   0.307   1.181   0.397  0.3325  0.2282  0.7270
    8SOL    HW3   31   0.309   1.332   0.390 -0.7152  0.1975 -0.3454
    8SOL    MW4   32   0.285   1.258   0.430 -0.0996  0.3189  0.2416
    9SOL     OW   33   0.533   0.076   0.543 -0.3015  0.2192 -0.1549
    9SOL    HW2   34   0.629   0.077   0.537 -0.2376  1.1566  0.9594
    9SOL    HW3   35   0.509  -0.014   0.518  0.9782 -0.4846  1.0417
    9SOL    MW4   36   0.542   0.064   0.539 -0.1242  0.2500  0.1500
   10SOL     OW   37   0.936   1.515   0.413 -0.2895 -0.0535 -0.3137
   10SOL    HW2   38   0.984   1.437   0.439 -0.7875 -0.0144  0.7375
   10SOL    HW3   39   1.004   1.576   0.384  0.1572 -0.5895 -0.4064
   10SOL    MW4   40   0.951   1.513   0.412 -0.2963 -0.1191 -0.1873
   11SOL     OW   41   4.231   1.613   0.456  0.2735  0.4569 -0.0609
   11SOL    HW2   42   4.320   1.600   0.489 -0.6387 -0.7172  2.0560
   11SOL    HW3   43   4.207   1.528   0.418  0.0086  0.7517 -0.5656
   11SOL    MW4   44   4.240   1.600   0.455  0.1182  0.3409  0.1518
   12SOL     OW   45   3.237   0.971   0.539  0.6716  0.3758 -0.6256
   12SOL    HW2   46   3.287   1.052   0.550 -0.5187  0.9549  0.7472
   12SOL    HW3   47   3.220   0.941   0.628 -0.4081 -0.4527 -1.0995
   12SOL    MW4   48   3.241   0.978   0.552  0.3721  0.3429 -0.5070
   13SOL     OW   49   0.010   1.574   0.501  0.0726 -0.8216  0.0042
   13SOL    HW2   50   0.022   1.634   0.575 -1.8091 -2.1722  1.4561
   13SOL    HW3   51   0.078   1.600   0.438 -0.0139  2.1008  1.0393
   13SOL    MW4   52   0.021   1.585   0.502 -0.1871 -0.6142  0.3323
   14SOL     OW   53   0.827   1.936   0.335  0.0445  0.0254 -0.5562
   14SOL    HW2   54   0.898   1.874   0.352  0.7906  0.6192 -1.4765
   14SOL    HW3   55   0.753   1.880   0.308  0.3815 -0.5321 -0.3406
   14SOL    MW4   56   0.826   1.920   0.334  0.1874  0.0302 -0.6492
   15SOL     OW   57   4.396   3.775   0.515  0.0464 -0.1384 -0.5387
   15SOL    HW2   58   4.374   3.690   0.477  1.1278 -1.3641  1.4930
   15SOL    HW3   59   4.328   3.790   0.581  0.7126 -0.1440  0.1555
   15SOL    MW4   60   4.384   3.766   0.519  0.2770 -0.3009 -0.1790
   16SOL     OW   61   4.393   3.499   0.458 -0.6902  0.4851 -0.0040
   16SOL    HW2   62   4.487   3.484   0.464 -0.6830 -0.7806 -2.7922
   16SOL    HW3   63   4.358   3.460   0.538  0.8570 -1.8197 -0.4107
   16SOL    MW4   64   4.400   3.492   0.470 -0.4851  0.0140 -0.4255
   17SOL     OW   65   0.574   3.174   0.336 -0.1648 -0.3776 -0.0549
   17SOL    HW2   66   0.480   3.178   0.349 -0.1201  1.0177 -0.1441
   17SOL    HW3   67   0.585   3.131   0.252 -0.7069 -0.9118  0.1456
   17SOL    MW4   68   0.563   3.169   0.327 -0.2304 -0.2640 -0.0402
   18SOL     OW   69   0.707   3.400   0.409 -0.0954  0.4029  0.4005
   18SOL    HW2   70   0.647   3.343   0.362  0.5584 -0.1219  0.1943
   18SOL    HW3   71   0.655   3.438   0.479 -0.3385 -1.0251  1.0017
   18SOL    MW4   72   0.692   3.398   0.412 -0.0412  0.1452  0.4526
   19SOL     OW   73   0.945   4.078   0.534 -0.2373 -0.2880 -0.4811
   19SOL    HW2   74   0.909   3.995   0.503  0.3209 -0.9494  0.6245
   19SOL    HW3   75   1.029   4.086   0.488 -0.4696 -0.1235 -0.8898
   19SOL    MW4   76   0.951   4.068   0.524 -0.1943 -0.3536 -0.3892
   20SOL     OW   77   3.950   3.481   0.423 -0.8229  0.1714  0.3157
   20SOL    HW2   78   4.037   3.474   0.384  0.0506 -0.2012  2.2578
   20SOL    HW3   79   3.931   3.575   0.422  0.9229  0.5853  2.6074
   20SOL    MW4   80   3.959   3.493   0.418 -0.4773  0.1768  0.8743
   21SOL     OW   81   0.367   2.957   0.072 -0.1343  0.1252 -0.1024
   21SOL    HW2   82   0.318   2.908   0.137  0.1751  1.9801  1.5707
   21SOL    HW3   83   0.303   3.017   0.034  0.3138  1.0043  0.5119
   21SOL    MW4   84   0.352   2.959   0.075 -0.0343  0.4859  0.1994
   22SOL     OW   85   0.202   0.335   0.238 -0.3618 -0.0949  0.5076
   22SOL    HW2   86   0.279   0.332   0.295 -0.8147  0.7454  1.1658
   22SOL    HW3   87   0.176   0.427   0.236 -0.4179 -0.1312 -0.9803
   22SOL    MW4   88   0.209   0.346   0.245 -0.4289  0.0111  0.3982
   23SOL     OW   89   4.001   3.977   0.692  0.4002 -0.2399  0.0874
   23SOL    HW2   90   3.993   4.057   0.744  0.6453  0.1798 -0.5118
   23SOL    HW3   91   3.911   3.953   0.670  0.3620  0.2016 -0.2313
   23SOL    MW4   92   3.988   3.984   0.696  0.4275 -0.1262 -0.0337
   24SOL     OW   93   4.418   0.036   0.566 -0.4085 -0.0451  0.7146
   24SOL    HW2   94   4.379   0.089   0.635 -1.1516 -0.6813  0.7813
   24SOL    HW3   95   4.416   0.093   0.489  0.9872  0.8982  1.3313
   24SOL    MW4   96   4.413   0.051   0.565 -0.3224 -0.0046  0.8047
   25SOL     OW   97   4.079   3.997   0.430 -0.0120  0.1972 -0.3370
   25SOL    HW2   98   4.170   4.016   0.408  0.4832 -2.1263 -0.3480
   25SOL    HW3   99   4.075   4.005   0.525  0.8380 -2.2725 -0.0738
   25SOL    MW4  100   4.090   4.001   0.439  0.1655 -0.4352 -0.3038
   26SOL     OW  101   0.920   0.356   0.335  0.4145 -0.1326 -0.3544
   26SOL    HW2  102   0.963   0.423   0.390 -1.5313 -0.1794  1.2811
   26SOL    HW3  103   0.924   0.276   0.388 -1.8570 -0.0793 -0.0668
   26SOL    MW4  104   0.926   0.354   0.349 -0.1419 -0.1317 -0.1006
   27SOL     OW  105   0.419   0.343   0.437  0.2785 -0.5032  0.4674
   27SOL    HW2  106   0.440   0.255   0.467  0.2871 -1.0807 -1.1694
   27SOL    HW3  107   0.502   0.390   0.439  0.4715 -0.8409  0.3633
   27SOL    MW4  108   0.432   0.337   0.441  0.3051 -0.6239  0.2377
   28SOL     OW  109   4.114   0.684   0.428 -0.0682 -0.3283 -0.0497
   28SOL    HW2  110   4.110   0.771   0.387 -0.1159  0.7596  2.1953
   28SOL    HW3  111   4.025   0.651   0.423 -0.4601  0.5816  0.7925
   28SOL    MW4  112   4.102   0.691   0.422 -0.1262 -0.0647  0.3576
   29SOL     OW  113   1.212   0.060   0.471 -0.1205 -0.1106  0.3503
   29SOL    HW2  114   1.123   0.092   0.486  0.4565  1.5832  0.2299
   29SOL    HW3  115   1.199  -0.023   0.425 -1.6328  0.7435 -0.8280
   29SOL    MW4  116   1.199   0.053   0.467 -0.2439  0.2256  0.1790
   30SOL     OW  117   0.138   0.815   0.350 -0.5957  0.2299 -0.1600
   30SOL    HW2  118   0.174   0.782   0.433  0.8930  1.2152 -0.4103
   30SOL    HW3  119   0.079   0.885   0.376 -1.2413 -0.4255  0.1577
   30SOL    MW4  120   0.135   0.820   0.364 -0.4845  0.2734 -0.1511
   31SOL     OW  121   0.342   1.006   0.327 -0.4154 -0.0142  0.1017
   31SOL    HW2  122   0.280   0.934   0.315  0.8956 -1.2056  0.2697
   31SOL    HW3  123   0.412   0.968   0.381  1.2324  0.8123 -1.3711
   31SOL    MW4  124   0.343   0.991   0.333 -0.0250 -0.0623 -0.0705
   32SOL     OW  125   4.209   2.078   0.343  0.2194  0.1360  0.2715
   32SOL    HW2  126   4.252   2.136   0.406 -1.9700 -0.9627  2.9226
   32SOL    HW3  127   4.143   2.133   0.301 -1.6810 -0.2320  2.6006
   32SOL    MW4  128   4.206   2.093   0.346 -0.3202 -0.0575  0.9286
   33SOL     OW  129   4.481   2.522   0.482  0.1501  0.0831 -0.1624
   33SOL    HW2  130   4.407   2.580   0.463  0.6036  0.2798 -1.3410
   33SOL    HW3  131   4.488   2.524   0.578 -1.3389  0.0907 -0.0418
   33SOL    MW4  132   4.472   2.530   0.492  0.0135  0.1101 -0.3020
   34SOL     OW  133   0.194   1.661   0.318  0.0054 -0.4665 -0.1997
   34SOL    HW2  134   0.235   1.732   0.369  1.5293 -1.3382 -0.1805
   34SOL    HW3  135   0.132   1.706   0.261 -0.6434  0.6813  1.3551
   34SOL    MW4  136   0.191   1.676   0.318  0.1209 -0.4301  0.0080
   35SOL     OW  137   0.463   2.142   0.435 -0.5515  0.3691 -0.1607
   35SOL    HW2  138   0.559   2.141   0.436 -0.4986  1.1749 -1.8575
   35SOL    HW3  139   0.440   2.228   0.400 -1.8582 -0.4211 -1.3201
   35SOL    MW4  140   0.473   2.153   0.430 -0.7169  0.3712 -0.5375
   36SOL     OW  141   0.364   2.812   0.391  0.6393  0.3671  0.0580
   36SOL    HW2  142   0.340   2.732   0.438 -0.0982  1.0796  0.9041
   36SOL    HW3  143   0.460   2.814   0.394  0.7105 -0.9205 -0.7162
   36SOL    MW4  144   0.374   2.801   0.397  0.5514  0.2912  0.0675
   37SOL     OW  145   4.440   0.997   0.454 -0.4236  0.2470  0.0624
   37SOL    HW2  146   4.349   1.009   0.427 -0.1163  1.3995 -0.4970
   37SOL    HW3  147   4.472   1.086   0.470  0.8996 -0.0724 -0.7547
   37SOL    MW4  148   4.432   1.010   0.453 -0.2085  0.3569 -0.1192
   38SOL     OW  149   0.392   1.835   0.433 -0.7976 -0.0109 -0.4615
   38SOL    HW2  150   0.412   1.924   0.461 -0.4868 -0.4669  0.7952
   38SOL    HW3  151   0.462   1.813   0.372  0.5763 -0.2930  1.1586
   38SOL    MW4  152   0.404   1.844   0.429 -0.5753 -0.1083 -0.0820
   39SOL     OW  153   3.954   3.033   0.238  0.3241 -0.1651  0.8543
   39SOL    HW2  154   3.946   3.031   0.143  2.2993 -0.6619  0.6792
   39SOL    HW3  155   3.908   3.112   0.264  0.6685  0.5398 -0.6171
   39SOL    MW4  156   3.947   3.043   0.229  0.6302 -0.1376  0.6371
   40SOL     OW  157   3.729   2.606   0.368  0.4541 -0.3354  0.1555
   40SOL    HW2  158   3.651   2.566   0.406  0.6027 -0.8756 -0.0985
   40SOL    HW3  159   3.728   2.696   0.399  0.0643 -0.5136  0.6648
   40SOL    MW4  160   3.719   2.612   0.378  0.4222 -0.4302  0.1891
   41SOL     OW  161   4.081   2.679   0.807  0.4893 -0.1038 -0.1982
   41SOL    HW2  162   4.066   2.597   0.759 -0.7761  0.1527 -0.2551
   41SOL    HW3  163   4.009   2.736   0.780 -0.0165  0.1903  1.6690
   41SOL    MW4  164   4.069   2.676   0.797  0.2556 -0.0311  0.0406
   42SOL     OW  165   0.125   4.213   0.478 -0.1171  0.2365  0.4535
   42SOL    HW2  166   0.044   4.164   0.462 -0.0524  0.2102  0.2037
   42SOL    HW3  167   0.169   4.163   0.548 -0.2902  0.2221  0.5543
   42SOL    MW4  168   0.120   4.200   0.485 -0.1314  0.2311  0.4339
   43SOL     OW  169   0.165   3.436   0.541 -0.5162  0.7539 -0.0252
   43SOL    HW2  170   0.224   3.509   0.559 -0.2671  0.7757 -0.8838
   43SOL    HW3  171   0.223   3.362   0.524 -0.7242  0.8217 -1.0696
   43SOL    MW4  172   0.180   3.436   0.541 -0.5108  0.7657 -0.2763
   44SOL     OW  173   0.373   3.718   0.508 -0.2658  0.1558 -0.0460
   44SOL    HW2  174   0.429   3.793   0.491 -1.2424  0.6835 -0.9781
   44SOL    HW3  175   0.309   3.749   0.571  1.1935 -0.7940  1.9583
   44SOL    MW4  176   0.372   3.732   0.514 -0.2021  0.1001  0.0954
   45SOL     OW  177   0.752   3.674   0.301 -0.3258  0.4206 -0.2609
   45SOL    HW2  178   0.671   3.716   0.274 -0.6290  0.3273  0.5188
   45SOL    HW3  179   0.730   3.582   0.311 -0.0819  0.3682 -0.1953
   45SOL    MW4  180   0.739   3.668   0.298 -0.3336  0.4014 -0.1494
   46SOL     OW  181   0.153   4.497   0.507  0.8127 -0.0867 -0.1770
   46SOL    HW2  182   0.114   4.418   0.470  0.5262  0.5703 -1.3185
   46SOL    HW3  183   0.084   4.563   0.501  1.9062  0.9626 -1.7680
   46SOL    MW4  184   0.139   4.496   0.502  0.9192  0.1384 -0.5375
   47SOL     OW  185   0.874   3.811   0.499  0.3473  0.0069  0.1506
   47SOL    HW2  186   0.830   3.763   0.430  0.8179 -0.2800  0.0436
   47SOL    HW3  187   0.824   3.792   0.578 -0.8917  1.2890 -0.3052
   47SOL    MW4  188   0.862   3.802   0.501  0.2459  0.1382  0.0763
   48SOL     OW  189   0.648   4.383   0.298 -0.5660  0.1441  0.4446
   48SOL    HW2  190   0.571   4.427   0.334  0.7432  0.7664  2.5882
   48SOL    HW3  191   0.636   4.291   0.322  0.4058  0.5881  2.7644
   48SOL    MW4  192   0.636   4.376   0.306 -0.2651  0.2848  1.0335
   49SOL     OW  193   0.451   4.482   0.472  0.4307 -0.5327  0.5776
   49SOL    HW2  194   0.480   4.402   0.516 -2.2652 -0.6788  2.1631
   49SOL    HW3  195   0.358   4.470   0.458  0.5533  1.0578 -2.0139
   49SOL    MW4  196   0.443   4.470   0.476  0.0912 -0.3421  0.4449
   50SOL     OW  197   0.240   0.437   0.650  0.0956 -0.1638 -0.6247
   50SOL    HW2  198   0.293   0.387   0.588 -0.5134 -0.1764 -1.1455
   50SOL    HW3  199   0.285   0.428   0.733  0.7970 -0.3449 -1.0223
   50SOL    MW4  200   0.253   0.430   0.653  0.1078 -0.1894 -0.7459
   51SOL     OW  201   0.261   0.699   0.575 -0.0290 -0.2042  1.0691
   51SOL    HW2  202   0.253   0.739   0.662 -1.6393 -0.7238  1.1621
   51SOL    HW3  203   0.253   0.605   0.591 -1.1927 -0.2528  0.2678
   51SOL    MW4  204   0.259   0.692   0.589 -0.3950 -0.2792  0.9757
   52SOL     OW  205   1.180   4.043   0.327 -0.4887  0.3538  0.1462
   52SOL    HW2  206   1.216   4.131   0.315 -0.0230  0.1580  0.1005
   52SOL    HW3  207   1.188   4.003   0.240 -0.1267  0.0529  0.3177
   52SOL    MW4  208   1.186   4.050   0.314 -0.3795  0.2883  0.1628
   53SOL     OW  209   1.508   1.250   0.465  0.2586  0.0791 -0.3277
   53SOL    HW2  210   1.590   1.266   0.418 -0.9166  1.8660 -1.8613
   53SOL    HW3  211   1.465   1.180   0.415  0.3084 -0.0143 -0.2390
   53SOL    MW4  212   1.513   1.243   0.452  0.1101  0.3025 -0.5184
   54SOL     OW  213   1.759   0.445   0.344  0.1327 -0.0280 -0.0945
   54SOL    HW2  214   1.709   0.491   0.276  0.5670  0.2670 -0.2156
   54SOL    HW3  215   1.705   0.370   0.366 -0.1793  0.0684 -0.5157
   54SOL    MW4  216   1.745   0.441   0.338  0.1488  0.0236 -0.1660
   55SOL     OW  217   0.733   0.737   0.395 -0.0289 -0.6943  0.1271
   55SOL    HW2  218   0.652   0.775   0.430  0.1648 -0.0796 -0.0898
   55SOL    HW3  219   0.745   0.781   0.311  1.5646  0.5956  1.0161
   55SOL    MW4  220   0.724   0.748   0.388  0.2069 -0.4430  0.2158
   56SOL     OW  221   1.176   1.007   0.516 -0.0729 -0.2546 -0.0121
   56SOL    HW2  222   1.222   0.969   0.591  1.6979 -1.7723 -1.8171
   56SOL    HW3  223   1.121   0.935   0.484 -0.5993  0.3010 -0.3613
   56SOL    MW4  224   1.175   0.992   0.522  0.0913 -0.3815 -0.2963
   57SOL     OW  225   1.305   1.445   0.416 -0.2097 -0.0497  0.2278
   57SOL    HW2  226   1.331   1.500   0.490 -0.2594  1.3723 -0.7963
   57SOL    HW3  227   1.383   1.392   0.399 -0.5035 -1.0569  1.8720
   57SOL    MW4  228   1.319   1.445   0.424 -0.2551  0.0050  0.3096
   58SOL     OW  229   1.291   1.706   0.310  0.8007  0.1797  0.1747
   58SOL    HW2  230   1.376   1.736   0.279  0.5967 -1.6733 -2.4212
   58SOL    HW3  231   1.300   1.611   0.317 -0.7538  0.0583  0.8831
   58SOL    MW4  232   1.303   1.697   0.307  0.5687 -0.0808 -0.0743
   59SOL     OW  233   1.164   2.051   0.496  0.2698 -0.2600  0.0229
   59SOL    HW2  234   1.151   2.102   0.416 -1.1290 -0.7063 -0.0367
   59SOL    HW3  235   1.112   2.096   0.562  0.7548 -0.3732  0.4846
   59SOL    MW4  236   1.156   2.064   0.494  0.1492 -0.3338  0.0760
   60SOL     OW  237   0.422   2.388   0.306 -0.4613 -0.5475  0.7320
   60SOL    HW2  238   0.501   2.442   0.315  1.2977 -3.0337  0.5790
   60SOL    HW3  239   0.420   2.365   0.213 -1.7352  0.0189  0.6150
   60SOL    MW4  240   0.432   2.392   0.295 -0.3973 -0.8008  0.6964
   61SOL     OW  241   0.493   0.861   0.511 -0.4655 -0.1658  0.2608
   61SOL    HW2  242   0.418   0.802   0.508 -0.6028  0.0074  0.3188
   61SOL    HW3  243   0.499   0.889   0.602 -0.6410  0.2203  0.1548
   61SOL    MW4  244   0.484   0.857   0.522 -0.5067 -0.0920  0.2545
   62SOL     OW  245   0.735   3.054   0.521 -0.0393  0.0920  0.3545
   62SOL    HW2  246   0.670   3.053   0.591 -0.8559  1.1018 -0.3657
   62SOL    HW3  247   0.694   3.107   0.452  0.9977 -0.3862 -0.6365
   62SOL    MW4  248   0.721   3.060   0.521 -0.0102  0.1621  0.1287
   63SOL     OW  249   0.658   1.538   0.360  0.4947  0.8705  0.0687
   63SOL    HW2  250   0.651   1.543   0.455  1.4731 -2.2469  0.3694
   63SOL    HW3  251   0.749   1.515   0.344  0.1776  0.7231 -1.6123
   63SOL    MW4  252   0.669   1.536   0.371  0.5820  0.4398 -0.1134
   64SOL     OW  253   0.741   2.153   0.465  0.3639  0.1404 -0.5712
   64SOL    HW2  254   0.804   2.226   0.462 -0.4103  0.7859 -1.9292
   64SOL    HW3  255   0.772   2.093   0.397  0.4714 -0.3671 -0.0779
   64SOL    MW4  256   0.754   2.155   0.455  0.2759  0.1586 -0.6853
   65SOL     OW  257   0.643   1.567   0.649  0.0358  0.0759  0.1295
   65SOL    HW2  258   0.574   1.633   0.654 -0.2278 -0.1159 -0.8577
   65SOL    HW3  259   0.722   1.611   0.681 -0.9182 -0.2454  3.0249
   65SOL    MW4  260   0.644   1.581   0.654 -0.1248  0.0082  0.3812
   66SOL     OW  261   0.559   3.539   0.608  0.1495 -0.4254 -0.2139
   66SOL    HW2  262   0.531   3.496   0.689  0.5640 -1.4581 -0.6066
   66SOL    HW3  263   0.494   3.607   0.593 -0.6238 -1.0342  0.3323
   66SOL    MW4  264   0.547   3.542   0.617  0.1022 -0.6420 -0.1937
   67SOL     OW  265   0.664   2.539   0.341 -0.0459 -0.0594 -0.5663
   67SOL    HW2  266   0.757   2.518   0.341  0.0312  0.2235 -1.9651
   67SOL    HW3  267   0.661   2.635   0.336 -0.4089 -0.0069  0.5627
   67SOL    MW4  268   0.676   2.549   0.340 -0.0836 -0.0151 -0.6019
   68SOL     OW  269   1.296   3.860   0.501 -0.0606 -0.1853 -0.2077
   68SOL    HW2  270   1.241   3.784   0.518  1.3490 -1.6395 -1.9547
   68SOL    HW3  271   1.245   3.914   0.441 -1.1106  0.3480  1.1257
   68SOL    MW4  272   1.282   3.857   0.495 -0.0132 -0.3068 -0.2622
   69SOL     OW  273   0.666   4.145   0.445 -0.1550  0.1381 -0.4660
   69SOL    HW2  274   0.757   4.126   0.468 -0.6435 -1.1455  0.4274
   69SOL    HW3  275   0.633   4.196   0.519 -0.4247 -0.1268 -0.4088
   69SOL    MW4  276   0.674   4.150   0.458 -0.2550 -0.0662 -0.3406
   70SOL     OW  277   1.102   4.444   0.406 -0.4239  0.3487 -0.0320
   70SOL    HW2  278   1.011   4.461   0.382 -0.8021 -1.0963  0.3539
   70SOL    HW3  279   1.099   4.418   0.498  0.3516  0.1319 -0.0610
   70SOL    MW4  280   1.090   4.443   0.415 -0.3715  0.1295  0.0151
   71SOL     OW  281   0.669   0.461   0.437 -0.2414 -0.5252  0.0660
   71SOL    HW2  282   0.742   0.406   0.407  1.3446  0.8511  1.3094
   71SOL    HW3  283   0.697   0.551   0.417 -0.8193  0.1370  2.1632
   71SOL    MW4  284   0.682   0.466   0.430 -0.1084 -0.2563  0.5067
   72SOL     OW  285   0.925   0.894   0.751 -0.7412  0.2597 -0.5050
   72SOL    HW2  286   0.842   0.853   0.776 -1.3306  0.5966 -1.8438
   72SOL    HW3  287   0.992   0.841   0.793 -1.6870  1.0310  2.0731
   72SOL    MW4  288   0.923   0.882   0.760 -0.9438  0.4059 -0.3415
   73SOL     OW  289   1.738   4.458   0.430 -0.2007  0.2518 -0.0892
   73SOL    HW2  290   1.667   4.394   0.427  0.0029  0.0059  0.3343
   73SOL    HW3  291   1.818   4.406   0.437  0.0157  0.5305 -0.4341
   73SOL    MW4  292   1.739   4.443   0.431 -0.1453  0.2561 -0.0788
   74SOL     OW  293   1.387   0.281   0.373  0.7115 -0.1416  0.0724
   74SOL    HW2  294   1.324   0.211   0.389  1.3280 -0.4311  1.2849
   74SOL    HW3  295   1.473   0.238   0.379  1.0307  0.0713 -2.4006
   74SOL    MW4  296   1.390   0.266   0.376  0.8350 -0.1517 -0.0939
   75SOL     OW  297   1.073   0.541   0.515 -0.3143 -0.4806 -0.4322
   75SOL    HW2  298   1.042   0.632   0.518 -0.5575 -0.6105  2.0007
   75SOL    HW3  299   1.166   0.548   0.494 -0.3656  0.3334 -0.4270
   75SOL    MW4  300   1.081   0.554   0.513 -0.3532 -0.3904 -0.1105
   76SOL     OW  301   0.950   0.132   0.528 -0.2266 -0.1105  0.4577
   76SOL    HW2  302   0.935   0.142   0.622  0.0929 -1.2267  0.6263
   76SOL    HW3  303   0.909   0.049   0.505  3.5966 -2.0963  0.4854
   76SOL    MW4  304   0.942   0.123   0.537  0.3200 -0.5198  0.4836
   77SOL     OW  305   2.339   1.043   0.020  0.3121  0.5426 -0.2589
   77SOL    HW2  306   2.273   1.111   0.006  0.0270  0.0272 -1.5568
   77SOL    HW3  307   2.420   1.090   0.037 -0.2643  1.1888  0.6889
   77SOL    MW4  308   2.341   1.058   0.020  0.1984  0.5599 -0.3051
   78SOL     OW  309   1.382   0.761   0.219 -0.1094  0.3189 -0.8155
   78SOL    HW2  310   1.375   0.840   0.272 -0.5337 -0.4469  0.2776
   78SOL    HW3  311   1.346   0.691   0.274  0.6902 -0.7266 -1.5896
   78SOL    MW4  312   1.376   0.762   0.233 -0.0599  0.0799 -0.7734
   79SOL     OW  313   1.952   1.326   0.511 -0.3220  0.0960 -0.3203
   79SOL    HW2  314   1.886   1.296   0.450 -0.7038 -0.2421  0.2491
   79SOL    HW3  315   1.977   1.413   0.480  0.6217 -0.7078 -1.8407
   79SOL    MW4  316   1.947   1.333   0.499 -0.2479 -0.0546 -0.4457
   80SOL     OW  317   0.976   0.816   0.473 -0.4206  0.4702 -0.0373
   80SOL    HW2  318   0.888   0.799   0.440 -0.3319  0.2289 -0.1570
   80SOL    HW3  319   0.963   0.847   0.562 -0.6022 -0.1323  0.1471
   80SOL    MW4  320   0.963   0.817   0.480 -0.4329  0.3589 -0.0288
   81SOL     OW  321   1.052   1.794   0.398 -0.3640  0.1909 -0.0859
   81SOL    HW2  322   1.134   1.758   0.365  0.1119 -1.1447  2.4292
   81SOL    HW3  323   1.077   1.874   0.444 -0.5828  0.2745 -0.1109
   81SOL    MW4  324   1.066   1.800   0.400 -0.3301  0.0257  0.2426
   82SOL     OW  325   1.357   1.897   0.639 -0.4558 -0.2603  0.0962
   82SOL    HW2  326   1.356   1.953   0.716 -0.1469 -0.6137  0.3614
   82SOL    HW3  327   1.291   1.935   0.580 -1.8799 -0.9404  1.2238
   82SOL    MW4  328   1.348   1.909   0.641 -0.6030 -0.3967  0.2799
   83SOL     OW  329   1.042   2.639   0.498 -0.2105  0.2931 -0.2830
   83SOL    HW2  330   0.991   2.710   0.458 -1.4023  0.2136  1.0321
   83SOL    HW3  331   1.077   2.677   0.578  0.1291 -0.2580 -0.1653
   83SOL    MW4  332   1.040   2.653   0.503 -0.3229  0.2099 -0.0940
   84SOL     OW  333   1.574   2.403   0.484 -0.6433  0.5968  0.4802
   84SOL    HW2  334   1.555   2.313   0.460  0.2547  0.3963  0.4771
   84SOL    HW3  335   1.494   2.452   0.464 -0.9000 -0.0809 -0.1449
   84SOL    MW4  336   1.561   2.398   0.478 -0.5587  0.4809  0.3973
   85SOL     OW  337   2.428   1.401   0.138 -0.2573 -0.6397  0.0224
   85SOL    HW2  338   2.406   1.444   0.221  1.6540 -1.6757  1.0938
   85SOL    HW3  339   2.511   1.441   0.111 -1.0232 -0.0868 -1.5563
   85SOL    MW4  340   2.436   1.412   0.145 -0.1062 -0.7035 -0.0445
   86SOL     OW  341   1.328   2.564   0.492 -0.1684 -0.4787 -0.3128
   86SOL    HW2  342   1.360   2.651   0.467  0.4514 -0.5126  0.3301
   86SOL    HW3  343   1.236   2.564   0.466  0.3380 -0.3576 -2.1626
   86SOL    MW4  344   1.320   2.576   0.485 -0.0198 -0.4672 -0.4720
   87SOL     OW  345   0.907   2.388   0.462  0.3349 -0.2045 -0.0868
   87SOL    HW2  346   0.937   2.345   0.542 -0.0088  1.1139  0.7742
   87SOL    HW3  347   0.955   2.471   0.460 -0.4358  0.2313 -0.7056
   87SOL    MW4  348   0.917   2.393   0.472  0.1878  0.0270 -0.0548
   88SOL     OW  349   0.759   2.813   0.685 -0.2604 -0.2689 -0.2588
   88SOL    HW2  350   0.760   2.720   0.661 -0.8419 -0.1906 -0.5994
   88SOL    HW3  351   0.837   2.849   0.643 -0.2309 -0.5325 -0.4374
   88SOL    MW4  352   0.770   2.806   0.676 -0.3332 -0.2933 -0.3273
   89SOL     OW  353   1.859   2.041   0.416  0.2501 -0.0106 -0.3507
   89SOL    HW2  354   1.904   2.071   0.337  0.6223  0.8373  0.1778
   89SOL    HW3  355   1.913   2.074   0.488 -0.5808  0.0051  0.2700
   89SOL    MW4  356   1.872   2.049   0.415  0.1896  0.1033 -0.1991
   90SOL     OW  357   2.217   3.919   0.730 -0.5201 -0.2955 -0.2446
   90SOL    HW2  358   2.130   3.909   0.770 -0.4710 -1.3649 -0.3929
   90SOL    HW3  359   2.199   3.929   0.637 -0.5688  1.1196 -0.1019
   90SOL    MW4  360   2.203   3.919   0.723 -0.5200 -0.2499 -0.2454
   91SOL     OW  361   1.118   4.409   0.678 -0.3217  0.3456 -0.1709
   91SOL    HW2  362   1.093   4.487   0.728 -1.6787  0.7119 -1.3871
   91SOL    HW3  363   1.190   4.371   0.728  0.8921  2.8041  0.0231
   91SOL    MW4  364   1.124   4.414   0.691 -0.3406  0.7183 -0.3058
   92SOL     OW  365   1.999   2.942   0.451 -0.3835 -0.4819 -0.0007
   92SOL    HW2  366   1.994   2.900   0.537  0.1727 -0.8899 -0.1638
   92SOL    HW3  367   2.092   2.940   0.429 -0.5487 -0.5247 -0.6873
   92SOL    MW4  368   2.011   2.936   0.460 -0.3319 -0.5413 -0.1128
   93SOL     OW  369   1.265   3.233   0.522 -0.3740 -0.6869  0.1482
   93SOL    HW2  370   1.234   3.143   0.524 -2.3167 -0.0550 -0.7866
   93SOL    HW3  371   1.186   3.286   0.513  0.8845  1.0059 -1.2586
   93SOL    MW4  372   1.251   3.228   0.521 -0.4643 -0.3802 -0.1607
   94SOL     OW  373   1.431   3.375   0.353 -0.3237  0.6061 -0.0668
   94SOL    HW2  374   1.366   3.334   0.410  0.2650  0.3306  0.4136
   94SOL    HW3  375   1.380   3.412   0.282 -0.7785 -2.1469 -1.2535
   94SOL    MW4  376   1.416   3.374   0.351 -0.3061  0.2065 -0.1600
   95SOL     OW  377   0.996   3.351   0.507  0.3012 -0.0479  0.2623
   95SOL    HW2  378   0.959   3.300   0.579 -2.2339 -0.6190 -1.3950
   95SOL    HW3  379   0.921   3.395   0.468  1.4079 -0.7442 -2.8054
   95SOL    MW4  380   0.981   3.350   0.512  0.1128 -0.2151 -0.3611
   96SOL     OW  381   0.826   4.557   0.447 -0.2149 -0.2409  0.4547
   96SOL    HW2  382   0.828   4.505   0.527  0.6200 -2.1996 -0.8020
   96SOL    HW3  383   0.759   4.514   0.393  0.7387 -0.2404 -0.7358
   96SOL    MW4  384   0.817   4.544   0.450  0.0211 -0.4993  0.1318
   97SOL     OW  385   2.213   0.117   0.742  0.2349  0.0674 -0.5693
   97SOL    HW2  386   2.236   0.132   0.650  1.9752  1.0410 -0.0026
   97SOL    HW3  387   2.294   0.086   0.782 -0.8773 -1.7173  0.3445
   97SOL    MW4  388   2.227   0.115   0.735  0.3178 -0.0396 -0.3740
   98SOL     OW  389   2.050   0.086   0.369  0.4300 -0.3375  0.0361
   98SOL    HW2  390   2.041   0.179   0.389  0.5210 -0.4412  0.5722
   98SOL    HW3  391   1.984   0.043   0.424 -0.2312 -0.5092 -0.8875
   98SOL    MW4  392   2.040   0.093   0.379  0.3548 -0.3738 -0.0150
   99SOL     OW  393   2.956   0.336   0.183  0.2283  0.1813  0.2182
   99SOL    HW2  394   2.921   0.423   0.202 -1.5909 -0.3967 -0.4549
   99SOL    HW3  395   2.972   0.337   0.088  1.4126  0.2006  0.4036
   99SOL    MW4  396   2.954   0.348   0.173  0.1446  0.1076  0.1538
  100SOL     OW  397   1.966   4.298   0.482 -0.8288 -0.0351  0.2317
  100SOL    HW2  398   2.052   4.331   0.456  0.3275 -0.6711  3.1413
  100SOL    HW3  399   1.959   4.213   0.437  0.3087 -0.2360  0.4065
  100SOL    MW4  400   1.977   4.291   0.472 -0.5262 -0.1455  0.6386
  101SOL     OW  401   1.759   0.954   0.235 -0.0147  0.2494 -0.6993
  101SOL    HW2  402   1.685   0.921   0.287  0.7767  0.9619  0.9364
  101SOL    HW3  403   1.726   0.959   0.146 -2.1869  1.2840  0.1423
  101SOL    MW4  404   1.745   0.950   0.230 -0.1969  0.4799 -0.3724
  102SOL     OW  405   2.244   1.632   0.464 -0.3817 -0.4664  0.3382
  102SOL    HW2  406   2.231   1.727   0.471 -0.7268 -0.2310 -2.8965
  102SOL    HW3  407   2.156   1.597   0.450 -0.1978 -1.2478  1.0962
  102SOL    MW4  408   2.231   1.640   0.463 -0.4030 -0.5384  0.0114
  103SOL     OW  409   2.138   1.301   0.146  0.0362 -0.2299  0.4022
  103SOL    HW2  410   2.225   1.341   0.154  0.2862 -0.7584  0.2965
  103SOL    HW3  411   2.143   1.222   0.199 -0.0857 -0.7584 -0.3718
  103SOL    MW4  412   2.150   1.296   0.154  0.0531 -0.3694  0.2861
  104SOL     OW  413   1.884   1.408   0.135  0.4269  0.0670  0.4756
  104SOL    HW2  414   1.973   1.373   0.128  0.0768 -0.7634  0.0677
  104SOL    HW3  415   1.871   1.455   0.053  0.5377  0.2954  0.5896
  104SOL    MW4  416   1.894   1.409   0.124  0.3954 -0.0124  0.4368
  105SOL     OW  417   2.418   1.028   0.435  0.1009 -0.1661 -0.3104
  105SOL    HW2  418   2.460   1.113   0.443  0.1926 -0.3989  2.2184
  105SOL    HW3  419   2.472   0.970   0.490 -1.6139 -1.1953  0.3262
  105SOL    MW4  420   2.431   1.031   0.443 -0.1133 -0.3326  0.1072
  106SOL     OW  421   1.977   1.572   0.390 -0.1883  0.1734 -0.1200
  106SOL    HW2  422   1.971   1.554   0.296  0.5945  0.1427 -0.1674
  106SOL    HW3  423   1.901   1.627   0.409  0.7409  1.8648 -1.1667
  106SOL    MW4  424   1.966   1.577   0.380  0.0376  0.3925 -0.2644
  107SOL     OW  425   1.773   1.772   0.456  0.4121 -0.2806 -0.0405
  107SOL    HW2  426   1.804   1.859   0.431  1.4219 -0.5153  0.3553
  107SOL    HW3  427   1.803   1.761   0.547 -1.2551 -0.3293  0.5219
  107SOL    MW4  428   1.781   1.782   0.465  0.3254 -0.3180  0.0860
  108SOL     OW  429   2.301   2.442   0.467  0.2240 -0.4022 -0.1578
  108SOL    HW2  430   2.322   2.534   0.449 -0.2855 -0.4475 -1.0614
  108SOL    HW3  431   2.268   2.441   0.557 -0.7710  0.4839 -0.4946
  108SOL    MW4  432   2.299   2.454   0.476  0.0255 -0.2913 -0.3215
  109SOL     OW  433   1.635   3.169   0.406  0.1733 -0.4064  0.0149
  109SOL    HW2  434   1.575   3.232   0.366  1.8230 -0.5933 -2.9089
  109SOL    HW3  435   1.711   3.168   0.348  1.0854 -3.5336  1.1647
  109SOL    MW4  436   1.637   3.177   0.393  0.5113 -0.8436 -0.2191
  110SOL     OW  437   0.940   2.899   0.468 -0.0616  0.7630  0.1048
  110SOL    HW2  438   1.027   2.938   0.457  0.2391  0.0697  0.0092
  110SOL    HW3  439   0.881   2.974   0.475  0.5928  1.2395  0.5861
  110SOL    MW4  440   0.944   2.914   0.468  0.0644  0.7344  0.1557
  111SOL     OW  441   0.648   2.814   0.358  0.0267  0.0732  0.4222
  111SOL    HW2  442   0.648   2.860   0.274  1.4888 -1.0044 -0.1878
  111SOL    HW3  443   0.689   2.875   0.419  1.8342 -0.3416 -0.3508
  111SOL    MW4  444   0.653   2.828   0.355  0.4581 -0.1237  0.2397
  112SOL     OW  445   1.516   1.862   0.395  0.0888  0.2489  0.0620
  112SOL    HW2  446   1.592   1.808   0.419  0.0244  0.0852 -0.1000
  112SOL    HW3  447   1.466   1.869   0.476  0.6417  0.9559  0.3476
  112SOL    MW4  448   1.519   1.855   0.409  0.1532  0.3206  0.0783
  113SOL     OW  449   3.594   1.887   0.425  0.1650  0.3128 -0.7779
  113SOL    HW2  450   3.562   1.802   0.395  0.6495  0.0041 -0.4417
  113SOL    HW3  451   3.514   1.937   0.443 -0.1422 -0.4327  0.0182
  113SOL    MW4  452   3.579   1.882   0.424  0.1884  0.1737 -0.6285
  114SOL     OW  453   1.775   2.769   0.454  0.1660 -0.3381  0.6208
  114SOL    HW2  454   1.732   2.823   0.521 -1.0709  0.5925 -0.8847
  114SOL    HW3  455   1.853   2.819   0.430 -0.4973  0.3449 -0.1226
  114SOL    MW4  456   1.780   2.783   0.460 -0.0847 -0.1252  0.3241
  115SOL     OW  457   1.838   2.495   0.463 -1.1136 -0.1916 -0.1741
  115SOL    HW2  458   1.758   2.443   0.458 -1.2156  0.0326 -0.8731
  115SOL    HW3  459   1.809   2.585   0.454 -0.4861 -0.2800 -3.6018
  115SOL    MW4  460   1.823   2.500   0.461 -1.0443 -0.1737 -0.7186
  116SOL     OW  461   1.201   2.974   0.504 -0.3255 -0.2302 -0.1054
  116SOL    HW2  462   1.174   2.922   0.580  0.7391 -0.3088  0.2308
  116SOL    HW3  463   1.274   2.926   0.467  0.9164  1.1900  0.4239
  116SOL    MW4  464   1.207   2.961   0.509 -0.0212 -0.0532  0.0088
  117SOL     OW  465   1.651   2.980   0.608 -0.1513 -0.0053 -0.1171
  117SOL    HW2  466   1.658   3.043   0.536 -2.4390 -1.3121 -1.5358
  117SOL    HW3  467   1.622   3.032   0.683  3.1713  1.5511  0.2081
  117SOL    MW4  468   1.648   2.995   0.608 -0.0148  0.0277 -0.2614
  118SOL     OW  469   1.322   4.306   0.307  0.3807  0.0598  0.3947
  118SOL    HW2  470   1.330   4.317   0.212  0.3001  0.0486  0.3867
  118SOL    HW3  471   1.257   4.372   0.333 -0.3505 -0.6254  0.3001
  118SOL    MW4  472   1.314   4.317   0.298  0.2736 -0.0321  0.3812
  119SOL     OW  473   1.549   3.792   0.419 -0.3924  0.1297 -0.1129
  119SOL    HW2  474   1.602   3.863   0.454 -1.9396  1.1797  0.1686
  119SOL    HW3  475   1.461   3.810   0.452 -1.2626 -0.5956 -1.9701
  119SOL    MW4  476   1.544   3.804   0.428 -0.7113  0.1726 -0.3208
  120SOL     OW  477   1.341   0.550   0.402  0.2865  0.0136 -0.4373
  120SOL    HW2  478   1.425   0.573   0.442 -0.5762 -0.8577  1.9631
  120SOL    HW3  479   1.350   0.458   0.380 -0.0516 -0.1028 -0.0984
  120SOL    MW4  480   1.353   0.541   0.405  0.1281 -0.1167 -0.0759
  121SOL     OW  481   1.538   4.271   0.470  0.3139 -0.1653 -0.1055
  121SOL    HW2  482   1.513   4.317   0.550  0.4255  2.0843 -1.3233
  121SOL    HW3  483   1.457   4.267   0.418  0.7372  0.3753 -0.8172
  121SOL    MW4  484   1.524   4.276   0.474  0.3845  0.2028 -0.3601
  122SOL     OW  485   2.027   0.402   0.405  0.2597  0.0088 -0.6192
  122SOL    HW2  486   2.083   0.466   0.362 -0.1919  0.3643 -0.6702
  122SOL    HW3  487   1.938   0.423   0.376 -0.2359  1.2306  1.6546
  122SOL    MW4  488   2.023   0.413   0.396  0.1347  0.2169 -0.3259
  123SOL     OW  489   1.840   0.021   0.547  0.5425  0.2602 -0.0975
  123SOL    HW2  490   1.794  -0.061   0.530 -0.4397  0.9110 -0.6256
  123SOL    HW3  491   1.822   0.039   0.639 -0.0480  0.3836 -0.2376
  123SOL    MW4  492   1.831   0.012   0.557  0.3350  0.3623 -0.1856
  124SOL     OW  493   2.370   0.825   0.218 -0.8626 -0.0152  0.3191
  124SOL    HW2  494   2.369   0.872   0.134  0.4095 -0.0922  0.2468
  124SOL    HW3  495   2.383   0.893   0.283  1.4972 -0.2724  0.1751
  124SOL    MW4  496   2.372   0.840   0.215 -0.3834 -0.0593  0.2906
  125SOL     OW  497   1.973   0.876   0.379 -0.2570  0.0799 -0.1841
  125SOL    HW2  498   1.898   0.894   0.322  0.8780  0.8408 -1.4766
  125SOL    HW3  499   2.041   0.935   0.348  0.1734  1.0268  2.4468
  125SOL    MW4  500   1.972   0.886   0.367 -0.0505  0.3052 -0.0075
  126SOL     OW  501   2.580   0.676   0.331  0.1551  0.1458 -0.1953
  126SOL    HW2  502   2.529   0.733   0.272 -0.5951 -0.3954 -0.0807
  126SOL    HW3  503   2.520   0.605   0.352  1.3646 -1.1144 -0.9848
  126SOL    MW4  504   2.565   0.674   0.326  0.2157 -0.0919 -0.2843
  127SOL     OW  505   3.097   1.890   0.409 -0.4885  0.1308  0.6191
  127SOL    HW2  506   3.011   1.908   0.447 -0.5974 -0.1307  0.4930
  127SOL    HW3  507   3.094   1.931   0.322 -0.3860  0.3642  0.7237
  127SOL    MW4  508   3.086   1.898   0.402 -0.4893  0.1271  0.6163
  128SOL     OW  509   2.959   1.000   0.480  0.5995 -0.2519 -0.4217
  128SOL    HW2  510   2.922   1.088   0.487  1.0816  0.2917 -3.9925
  128SOL    HW3  511   3.051   1.010   0.504 -0.0453 -0.4418  2.3157
  128SOL    MW4  512   2.966   1.013   0.484  0.5780 -0.2052 -0.5317
  129SOL     OW  513   2.440   1.974   0.539  0.4489  0.3829  0.3459
  129SOL    HW2  514   2.351   1.940   0.530  0.8852 -0.8243  0.5100
  129SOL    HW3  515   2.442   2.051   0.483 -0.7349  0.4869  0.4322
  129SOL    MW4  516   2.429   1.980   0.531  0.3503  0.2373  0.3790
  130SOL     OW  517   1.613   0.588   0.135 -0.2032 -0.2183 -0.1900
  130SOL    HW2  518   1.569   0.514   0.094  0.4482 -0.4146 -0.5411
  130SOL    HW3  519   1.545   0.655   0.142 -0.5576 -0.5141 -0.7380
  130SOL    MW4  520   1.598   0.587   0.131 -0.1640 -0.2832 -0.3086
  131SOL     OW  521   2.186   1.897   0.512 -0.1864  0.0156 -0.7529
  131SOL    HW2  522   2.118   1.917   0.576  0.1041 -0.5555 -0.2620
  131SOL    HW3  523   2.181   1.968   0.448 -1.3713 -0.1226 -0.8191
  131SOL    MW4  524   2.176   1.909   0.512 -0.3044 -0.0780 -0.6969
  132SOL     OW  525   1.754   1.218   0.329 -0.0265  0.2412  0.0685
  132SOL    HW2  526   1.764   1.124   0.313 -1.0115  0.4915 -2.2426
  132SOL    HW3  527   1.802   1.260   0.257 -0.1251  1.5006  0.7209
  132SOL    MW4  528   1.762   1.211   0.317 -0.1695  0.4404 -0.1504
  133SOL     OW  529   2.203   2.124   0.368  0.6020  0.2404 -0.3641
  133SOL    HW2  530   2.147   2.201   0.360  0.2053  0.1164  1.0208
  133SOL    HW3  531   2.292   2.159   0.372  0.3283  0.7806  1.9223
  133SOL    MW4  532   2.207   2.139   0.367  0.5136  0.2953  0.1203
  134SOL     OW  533   2.687   2.613   0.581  0.2366 -0.4103  0.4095
  134SOL    HW2  534   2.595   2.591   0.566  0.2349 -0.1052 -0.0208
  134SOL    HW3  535   2.691   2.636   0.674  0.0060 -1.0605  0.5874
  134SOL    MW4  536   2.676   2.613   0.591  0.2060 -0.4559  0.3762
  135SOL     OW  537   2.312   2.925   0.523 -0.4551  0.0200  0.3557
  135SOL    HW2  538   2.280   3.015   0.525 -0.2898  0.1050 -0.6078
  135SOL    HW3  539   2.381   2.923   0.589  0.7463  1.0667 -0.8487
  135SOL    MW4  540   2.317   2.937   0.532 -0.2747  0.1693  0.0697
  136SOL     OW  541   1.598   2.120   0.444  0.0354 -0.3725 -0.4403
  136SOL    HW2  542   1.692   2.097   0.443  0.0907 -0.2072  0.5813
  136SOL    HW3  543   1.555   2.044   0.404  0.5075 -0.9523  0.1312
  136SOL    MW4  544   1.605   2.107   0.438  0.1050 -0.4272 -0.2301
  137SOL     OW  545   2.475   3.619   0.454 -0.7334  0.2155 -0.5262
  137SOL    HW2  546   2.437   3.613   0.541 -0.5104 -0.9084 -0.4964
  137SOL    HW3  547   2.401   3.608   0.394 -0.4100 -2.6180 -0.4713
  137SOL    MW4  548   2.461   3.616   0.457 -0.6613 -0.3067 -0.5151
  138SOL     OW  549   1.665   4.009   0.537  0.4666  0.1490 -0.1121
  138SOL    HW2  550   1.633   4.097   0.518 -0.8083 -0.1798  0.4245
  138SOL    HW3  551   1.738   3.996   0.477 -0.2636  1.0262 -1.2167
  138SOL    MW4  552   1.670   4.019   0.526  0.2020  0.2213 -0.1870
  139SOL     OW  553   1.758   4.640   0.209  0.4801  0.5773  0.4696
  139SOL    HW2  554   1.852   4.656   0.196  0.7907 -0.9252  0.8383
  139SOL    HW3  555   1.754   4.560   0.261 -1.0511 -0.5382 -1.3050
  139SOL    MW4  556   1.770   4.632   0.214  0.3190  0.2319  0.2841
  140SOL     OW  557   1.102   3.666   0.526 -0.0727 -0.3758 -0.5817
  140SOL    HW2  558   1.071   3.577   0.511 -1.5302  0.0563 -0.2312
  140SOL    HW3  559   1.025   3.721   0.510 -0.2260  0.5118  2.8477
  140SOL    MW4  560   1.088   3.662   0.522 -0.2852 -0.2017 -0.0830
  141SOL     OW  561   1.925   3.529   0.538  0.1066  0.0526  0.2412
  141SOL    HW2  562   1.839   3.532   0.496  0.6244  0.1243 -0.8536
  141SOL    HW3  563   1.918   3.586   0.614  0.0368  2.4345 -1.4762
  141SOL    MW4  564   1.913   3.537   0.542  0.1657  0.3763 -0.1298
  142SOL     OW  565   1.675   0.158   0.365 -0.1709 -0.2879 -0.1703
  142SOL    HW2  566   1.682   0.099   0.290  0.0283  0.9957 -1.1867
  142SOL    HW3  567   1.727   0.116   0.433 -0.6444 -1.6531 -0.6271
  142SOL    MW4  568   1.683   0.145   0.364 -0.2071 -0.2987 -0.3647
  143SOL     OW  569   1.632   3.540   0.497  1.0255  0.3230 -0.6008
  143SOL    HW2  570   1.608   3.627   0.466 -0.3030  0.5445  0.9773
  143SOL    HW3  571   1.576   3.481   0.448 -0.7075  0.6364  0.9329
  143SOL    MW4  572   1.622   3.544   0.486  0.6216  0.3936 -0.1903
  144SOL     OW  573   2.433   4.552   0.517  0.2377  0.5641  0.0131
  144SOL    HW2  574   2.439   4.486   0.586 -0.7834  1.1839  0.7133
  144SOL    HW3  575   2.520   4.592   0.513  0.4114  0.2511  0.6646
  144SOL    MW4  576   2.445   4.549   0.525  0.1259  0.6046  0.1915
  145SOL     OW  577   1.879   4.051   0.370 -0.2378 -0.4189  0.1024
  145SOL    HW2  578   1.868   4.032   0.276  1.8814 -0.7794 -0.1160
  145SOL    HW3  579   1.958   4.002   0.394 -0.0081  0.7532  1.7719
  145SOL    MW4  580   1.888   4.042   0.361  0.0721 -0.3118  0.2939
  146SOL     OW  581   2.734   3.687   0.543  0.3134 -0.4980  0.8071
  146SOL    HW2  582   2.652   3.671   0.495  0.1707 -1.0894  1.2373
  146SOL    HW3  583   2.759   3.775   0.518 -0.4541 -0.3125  0.6588
  146SOL    MW4  584   2.726   3.696   0.533  0.1933 -0.5516  0.8443
  147SOL     OW  585   1.611   0.882   0.458  0.5780  0.1107 -0.0678
  147SOL    HW2  586   1.648   0.911   0.541 -0.7321 -0.3135  0.6827
  147SOL    HW3  587   1.600   0.788   0.468 -0.3764  0.1793 -0.3980
  147SOL    MW4  588   1.614   0.874   0.470  0.2793  0.0638 -0.0123
  148SOL     OW  589   1.587   0.594   0.500  0.0140  0.2501  0.2632
  148SOL    HW2  590   1.572   0.549   0.584 -0.2580  0.3367  0.2630
  148SOL    HW3  591   1.674   0.565   0.473  0.2050  0.4123  0.6946
  148SOL    MW4  592   1.596   0.584   0.508  0.0033  0.2829  0.3201
  149SOL     OW  593   2.370   0.446   0.440 -0.6865 -0.3242 -0.4442
  149SOL    HW2  594   2.304   0.511   0.416 -0.0200 -0.6007 -3.2123
  149SOL    HW3  595   2.332   0.362   0.414  1.1468 -0.3894 -3.1299
  149SOL    MW4  596   2.356   0.443   0.433 -0.3567 -0.3693 -1.1637
  150SOL     OW  597   2.147   1.094   0.345  0.3088 -0.5390 -0.0712
  150SOL    HW2  598   2.097   1.127   0.419 -1.1117  1.8802 -1.9978
  150SOL    HW3  599   2.238   1.093   0.375 -0.1385  1.2914  1.4083
  150SOL    MW4  600   2.153   1.098   0.359  0.0623  0.0217 -0.1302
  151SOL     OW  601   2.799   0.906   0.680  0.3745  0.4520 -0.3424
  151SOL    HW2  602   2.855   0.858   0.741  0.3181 -0.5071 -1.0399
  151SOL    HW3  603   2.855   0.922   0.604 -0.7661 -1.9333 -1.7178
  151SOL    MW4  604   2.814   0.902   0.678  0.2165  0.0108 -0.6159
  152SOL     OW  605   3.985   2.244   0.277 -0.1327 -0.2614  0.1563
  152SOL    HW2  606   3.929   2.303   0.226  0.4526 -1.6275 -2.1121
  152SOL    HW3  607   3.924   2.181   0.315 -0.5869  0.8454  1.2876
  152SOL    MW4  608   3.969   2.244   0.275 -0.1154 -0.2956  0.0062
  153SOL     OW  609   2.868   1.270   0.486  0.5390  0.2792 -0.4402
  153SOL    HW2  610   2.954   1.307   0.463  0.9411 -0.8937 -0.8951
  153SOL    HW3  611   2.856   1.293   0.577  0.3107  2.4001 -0.9884
  153SOL    MW4  612   2.878   1.278   0.495  0.5620  0.4043 -0.5725
  154SOL     OW  613   3.341   2.032   0.467 -0.0298 -0.4917  0.0549
  154SOL    HW2  614   3.255   1.988   0.467 -0.7817  0.9555  0.3587
  154SOL    HW3  615   3.367   2.031   0.559  0.2292 -0.8213 -0.0208
  154SOL    MW4  616   3.333   2.026   0.479 -0.0948 -0.3442  0.0850
  155SOL     OW  617   2.166   4.470   0.398  0.1526 -0.4579  0.2689
  155SOL    HW2  618   2.135   4.553   0.361 -0.2147 -0.4191  0.6496
  155SOL    HW3  619   2.256   4.488   0.423  0.0317 -0.1234  0.4781
  155SOL    MW4  620   2.174   4.484   0.397  0.0882 -0.4087  0.3468
  156SOL     OW  621   2.838   1.998   0.488  0.5582  0.4954 -0.2854
  156SOL    HW2  622   2.776   1.925   0.483  0.6608  0.4579 -1.0925
  156SOL    HW3  623   2.874   1.993   0.576  1.9825 -1.6166 -0.9500
  156SOL    MW4  624   2.835   1.988   0.499  0.7596  0.2118 -0.4796
  157SOL     OW  625   2.827   2.825   0.461 -0.2254 -0.1390  0.7575
  157SOL    HW2  626   2.748   2.782   0.494  0.0314 -1.1183  0.1162
  157SOL    HW3  627   2.814   2.918   0.480 -2.1136 -0.1360 -0.5262
  157SOL    MW4  628   2.815   2.832   0.468 -0.4407 -0.2678  0.5035
  158SOL     OW  629   2.505   1.547   0.386 -0.2205  0.2616 -0.0915
  158SOL    HW2  630   2.419   1.576   0.415 -0.4588  0.8359 -1.3109
  158SOL    HW3  631   2.565   1.615   0.418 -0.2800  0.1132  0.3388
  158SOL    MW4  632   2.502   1.560   0.394 -0.2598  0.3178 -0.1956
  159SOL     OW  633   2.043   2.349   0.375  0.1289 -0.2918 -0.0379
  159SOL    HW2  634   2.130   2.389   0.384  0.2291 -0.1639 -1.4178
  159SOL    HW3  635   1.982   2.418   0.401  0.4214 -0.1236  0.1987
  159SOL    MW4  636   2.047   2.364   0.379  0.1807 -0.2528 -0.1887
  160SOL     OW  637   2.599   3.662   0.787 -0.1272 -0.1524  0.8530
  160SOL    HW2  638   2.637   3.665   0.699 -0.2821  1.4167  0.8223
  160SOL    HW3  639   2.638   3.585   0.828 -0.7627 -1.4559 -0.9102
  160SOL    MW4  640   2.609   3.652   0.781 -0.2315 -0.1174  0.6163
  161SOL     OW  641   3.054   2.615   0.351 -0.1643 -0.1911 -0.1129
  161SOL    HW2  642   3.082   2.662   0.272  0.5284 -0.2129  0.1133
  161SOL    HW3  643   2.989   2.672   0.391  1.1223  0.8995  0.4872
  161SOL    MW4  644   3.049   2.629   0.346  0.0969 -0.0501 -0.0039
  162SOL     OW  645   3.196   3.239   0.352 -0.0952 -0.2814 -0.1012
  162SOL    HW2  646   3.114   3.246   0.401  0.1668 -1.0197  0.4510
  162SOL    HW3  647   3.245   3.317   0.376 -0.8900  0.4693 -0.9058
  162SOL    MW4  648   3.191   3.250   0.362 -0.1655 -0.2798 -0.1345
  163SOL     OW  649   2.157   3.952   0.441  0.1605  0.3272 -0.4094
  163SOL    HW2  650   2.177   3.866   0.403 -0.1735  1.0054 -2.1811
  163SOL    HW3  651   2.234   4.005   0.422  0.2089  0.5412  0.3537
  163SOL    MW4  652   2.169   3.947   0.433  0.1228  0.4449 -0.5425
  164SOL     OW  653   1.865   3.271   0.632 -0.1917 -0.4017 -0.5501
  164SOL    HW2  654   1.816   3.241   0.555 -0.8825 -2.9434  0.8275
  164SOL    HW3  655   1.886   3.363   0.613 -0.9649 -0.7834 -3.4361
  164SOL    MW4  656   1.861   3.279   0.619 -0.3848 -0.7874 -0.7491
  165SOL     OW  657   2.980   3.277   0.519 -0.0692 -0.0830  0.7013
  165SOL    HW2  658   2.972   3.372   0.524 -2.1117 -0.2326  1.0632
  165SOL    HW3  659   3.031   3.253   0.596  2.3405  0.8682 -0.5498
  165SOL    MW4  660   2.985   3.286   0.530 -0.0207  0.0228  0.5840
  166SOL     OW  661   3.057   3.990   0.470 -0.3286  0.3078 -0.6841
  166SOL    HW2  662   3.078   4.032   0.554 -1.7222 -0.6500  0.1714
  166SOL    HW3  663   3.114   4.032   0.407  0.9895  0.8170  0.8197
  166SOL    MW4  664   3.067   4.001   0.473 -0.3386  0.2486 -0.3728
  167SOL     OW  665   2.104   3.391   0.372  0.0626  0.0910  0.4420
  167SOL    HW2  666   2.038   3.438   0.423  1.4393  0.2821  2.0737
  167SOL    HW3  667   2.144   3.330   0.434  0.2216 -1.2610 -0.9709
  167SOL    MW4  668   2.101   3.389   0.387  0.2652 -0.0622  0.4708
  168SOL     OW  669   3.174   3.754   0.507 -0.2908  0.1795  0.0241
  168SOL    HW2  670   3.132   3.834   0.475 -0.5101  0.8207  1.8686
  168SOL    HW3  671   3.233   3.784   0.576  0.1339 -1.1834  0.2586
  168SOL    MW4  672   3.176   3.769   0.512 -0.2637  0.0843  0.2984
  169SOL     OW  673   2.311   0.166   0.496 -0.0124 -0.1313 -0.1057
  169SOL    HW2  674   2.354   0.081   0.502 -1.0637 -0.6479  0.1489
  169SOL    HW3  675   2.233   0.151   0.444  1.2881  1.3033 -2.5472
  169SOL    MW4  676   2.306   0.153   0.490  0.0205 -0.0102 -0.3942
  170SOL     OW  677   3.097   4.441   0.415 -0.1902 -0.1513 -0.2252
  170SOL    HW2  678   3.103   4.536   0.426  1.0280 -0.2400 -0.0141
  170SOL    HW3  679   3.011   4.418   0.451 -0.1934  0.7808  0.3895
  170SOL    MW4  680   3.087   4.450   0.421 -0.0299 -0.0400 -0.1163
  171SOL     OW  681   2.700   4.648   0.505 -0.4510 -0.0309 -0.5822
  171SOL    HW2  682   2.710   4.694   0.589 -1.9125  0.5557 -0.7256
  171SOL    HW3  683   2.740   4.707   0.442  1.0006 -0.6462 -0.2617
  171SOL    MW4  684   2.707   4.662   0.508 -0.4523 -0.0347 -0.5588
  172SOL     OW  685   2.778   3.945   0.506  0.4246  0.1094  0.9948
  172SOL    HW2  686   2.723   4.013   0.467 -0.9826 -2.1892 -1.1587
  172SOL    HW3  687   2.868   3.971   0.484 -0.1597  0.7790 -0.6588
  172SOL    MW4  688   2.783   3.957   0.498  0.1618 -0.1056  0.4925
  173SOL     OW  689   2.575   1.274   0.455  0.3863 -0.1080  0.8674
  173SOL    HW2  690   2.668   1.263   0.435  0.4351  0.5159  0.7429
  173SOL    HW3  691   2.556   1.365   0.432  0.0438  0.1278  2.0875
  173SOL    MW4  692   2.585   1.284   0.449  0.3475  0.0054  1.0119
  174SOL     OW  693   3.292   0.740   0.375 -0.1011 -0.0431 -0.0190
  174SOL    HW2  694   3.276   0.810   0.438  1.1225  1.4345 -1.2958
  174SOL    HW3  695   3.363   0.774   0.320  0.2140 -2.1185 -0.9249
  174SOL    MW4  696   3.299   0.754   0.376  0.1019 -0.1219 -0.3070
  175SOL     OW  697   2.175   0.672   0.332  0.5065 -0.2525  0.6349
  175SOL    HW2  698   2.097   0.728   0.341  0.5821  0.2541 -1.6659
  175SOL    HW3  699   2.242   0.730   0.296  0.7567 -1.6757 -1.2327
  175SOL    MW4  700   2.173   0.687   0.329  0.5495 -0.3734  0.0849
  176SOL     OW  701   3.268   0.242   0.362 -0.6629  0.3107 -0.6156
  176SOL    HW2  702   3.271   0.331   0.396  1.9358  0.3050 -0.7198
  176SOL    HW3  703   3.232   0.251   0.274 -0.5196  1.2462 -0.5801
  176SOL    MW4  704   3.263   0.255   0.355 -0.3011  0.4334 -0.6247
  177SOL     OW  705   3.029   0.791   0.300  0.4299 -0.4959  0.5257
  177SOL    HW2  706   3.120   0.777   0.328  0.5381 -2.4096 -0.6850
  177SOL    HW3  707   2.996   0.859   0.359  2.4024 -0.3497  1.5049
  177SOL    MW4  708   3.037   0.798   0.311  0.7044 -0.7291  0.4951
  178SOL     OW  709   3.800   1.274   0.730 -0.1210  0.3534  0.1168
  178SOL    HW2  710   3.717   1.235   0.757 -0.3774  1.5259  1.0371
  178SOL    HW3  711   3.789   1.287   0.635 -0.9451  0.3921  0.2070
  178SOL    MW4  712   3.787   1.271   0.721 -0.2635  0.5132  0.2501
  179SOL     OW  713   2.751   2.251   0.395 -0.4620  0.1665 -0.2889
  179SOL    HW2  714   2.837   2.293   0.393 -0.4693  0.2276  0.6778
  179SOL    HW3  715   2.770   2.160   0.418 -0.4979 -0.2435 -1.8249
  179SOL    MW4  716   2.765   2.245   0.397 -0.4677  0.1205 -0.3640
  180SOL     OW  717   3.173   1.640   0.468  0.1089  0.0703 -0.5288
  180SOL    HW2  718   3.144   1.727   0.439 -1.3226 -0.5306 -0.9625
  180SOL    HW3  719   3.168   1.644   0.563  1.1747  0.8339 -0.4938
  180SOL    MW4  720   3.169   1.652   0.477  0.0606  0.0917 -0.5814
  181SOL     OW  721   3.310   2.302   0.389 -0.0719  0.0360  0.1211
  181SOL    HW2  722   3.312   2.207   0.400  0.2528  0.0033 -0.2165
  181SOL    HW3  723   3.217   2.324   0.392 -0.0772 -0.1372  1.4739
  181SOL    MW4  724   3.298   2.293   0.391 -0.0298  0.0088  0.2551
  182SOL     OW  725   2.629   1.773   0.483  0.7128  0.2992 -0.5489
  182SOL    HW2  726   2.641   1.734   0.569 -0.3346 -1.3822 -1.1348
  182SOL    HW3  727   2.554   1.832   0.494 -0.7731 -1.5131 -0.7997
  182SOL    MW4  728   2.620   1.776   0.496  0.3786 -0.1617 -0.6593
  183SOL     OW  729   2.761   3.073   0.565  0.0987  0.2983 -0.0689
  183SOL    HW2  730   2.829   3.133   0.535  0.6011  0.4865  1.4095
  183SOL    HW3  731   2.738   3.105   0.653 -1.1354 -0.4036 -0.1244
  183SOL    MW4  732   2.767   3.085   0.573  0.0022  0.2305  0.1188
  184SOL     OW  733   2.524   3.245   0.528  0.1246 -0.0576  0.4734
  184SOL    HW2  734   2.605   3.194   0.526 -0.0363 -0.3552  1.2753
  184SOL    HW3  735   2.550   3.333   0.500  0.4441 -0.5246 -0.7212
  184SOL    MW4  736   2.538   3.250   0.524  0.1455 -0.1585  0.4216
  185SOL     OW  737   2.415   2.683   0.414 -0.0900 -0.4407 -0.5529
  185SOL    HW2  738   2.467   2.687   0.334  1.8681 -0.1573  0.7061
  185SOL    HW3  739   2.369   2.767   0.417  0.8358  0.0732 -0.7124
  185SOL    MW4  740   2.415   2.695   0.404  0.2905 -0.3355 -0.4078
  186SOL     OW  741   2.938   2.811   0.712  0.6171  0.6542 -0.7530
  186SOL    HW2  742   2.919   2.797   0.619 -0.9949  0.2470 -0.3819
  186SOL    HW3  743   3.021   2.766   0.726 -0.4975 -1.7451 -1.4063
  186SOL    MW4  744   2.946   2.803   0.701  0.2573  0.2839 -0.7902
  187SOL     OW  745   2.849   0.578   0.290  0.3999  0.1305  0.0785
  187SOL    HW2  746   2.910   0.652   0.282  0.5295  0.0576  0.3765
  187SOL    HW3  747   2.762   0.618   0.288  0.4783  0.3319  0.6482
  187SOL    MW4  748   2.846   0.593   0.289  0.4273  0.1474  0.1930
  188SOL     OW  749   3.323   3.495   0.458  0.3084  0.3262  0.3270
  188SOL    HW2  750   3.341   3.486   0.552 -0.5569  0.3042  0.4982
  188SOL    HW3  751   3.267   3.573   0.452 -1.8898 -1.2275  0.1341
  188SOL    MW4  752   3.318   3.504   0.470 -0.0958  0.1183  0.3241
  189SOL     OW  753   3.797   3.261   0.324 -0.7015 -0.3459 -0.1754
  189SOL    HW2  754   3.839   3.341   0.356  0.7313 -0.9867 -0.4411
  189SOL    HW3  755   3.715   3.292   0.284 -0.2578  0.9616 -0.1093
  189SOL    MW4  756   3.792   3.276   0.323 -0.4539 -0.2579 -0.2017
  190SOL     OW  757   3.298   2.748   0.493 -0.2816  0.0529 -0.0581
  190SOL    HW2  758   3.374   2.689   0.482 -0.9571 -1.0712  1.1906
  190SOL    HW3  759   3.224   2.697   0.459 -0.5439  1.0252 -0.9621
  190SOL    MW4  760   3.299   2.733   0.487 -0.4053  0.0329 -0.0126
  191SOL     OW  761   3.631   3.116   0.513  0.1050  0.0948 -0.0937
  191SOL    HW2  762   3.549   3.096   0.467 -0.1744 -0.3488  0.5902
  191SOL    HW3  763   3.683   3.166   0.449 -0.5547  0.0765 -0.6502
  191SOL    MW4  764   3.627   3.120   0.499 -0.0189  0.0339 -0.0769
  192SOL     OW  765   3.582   4.557   0.346 -0.0529  0.2031  0.4768
  192SOL    HW2  766   3.492   4.574   0.318  0.1937 -0.3549 -0.6409
  192SOL    HW3  767   3.609   4.639   0.389 -0.7166  0.7533 -0.1430
  192SOL    MW4  768   3.573   4.570   0.348 -0.1079  0.2021  0.2475
  193SOL     OW  769   2.256   3.193   0.535 -0.1720 -0.1978  0.0138
  193SOL    HW2  770   2.345   3.227   0.528  0.3925 -1.8207 -0.8773
  193SOL    HW3  771   2.234   3.201   0.628  1.1297 -0.3441  0.3410
  193SOL    MW4  772   2.264   3.199   0.546  0.0742 -0.4312 -0.0606
  194SOL     OW  773   4.073   4.618   0.730 -0.1796 -0.1843 -0.0394
  194SOL    HW2  774   4.101   4.691   0.674 -0.6105  0.0547  0.0535
  194SOL    HW3  775   4.140   4.612   0.798 -0.1192  0.0961 -0.0738
  194SOL    MW4  776   4.086   4.627   0.731 -0.2285 -0.1158 -0.0317
  195SOL     OW  777   2.963   0.441   0.500 -0.0764 -0.0613 -0.0277
  195SOL    HW2  778   2.915   0.492   0.435 -0.9093 -0.5944  0.1667
  195SOL    HW3  779   2.924   0.354   0.496  0.9168 -0.5239  0.0887
  195SOL    MW4  780   2.952   0.436   0.491 -0.0553 -0.1926  0.0133
  196SOL     OW  781   3.236   0.479   0.477  0.3331 -0.6928  0.3557
  196SOL    HW2  782   3.142   0.461   0.471  0.6343 -2.0263 -0.5976
  196SOL    HW3  783   3.245   0.569   0.447 -0.6434 -0.5164  0.5480
  196SOL    MW4  784   3.224   0.488   0.472  0.2440 -0.8455  0.2553
  197SOL     OW  785   3.818   0.309   0.288  0.0673 -0.0352 -0.4224
  197SOL    HW2  786   3.818   0.308   0.193  1.4873  1.6256 -0.4688
  197SOL    HW3  787   3.910   0.298   0.313  0.0298  1.7256  0.6715
  197SOL    MW4  788   3.830   0.308   0.279  0.2497  0.4162 -0.2842
  198SOL     OW  789   4.104   4.520   0.311 -0.0666 -0.1253  0.0884
  198SOL    HW2  790   4.037   4.542   0.376  0.2903  2.4444 -0.3647
  198SOL    HW3  791   4.058   4.464   0.248 -0.9030 -1.0732  1.4986
  198SOL    MW4  792   4.089   4.515   0.311 -0.1299  0.0887  0.2147
  199SOL     OW  793   4.220   1.324   0.439  0.6736  0.1159  0.1466
  199SOL    HW2  794   4.314   1.319   0.422  0.5069  0.3674 -0.8371
  199SOL    HW3  795   4.212   1.297   0.531  1.4688 -2.2218 -0.4147
  199SOL    MW4  796   4.231   1.320   0.449  0.7565 -0.1593 -0.0572
  200SOL     OW  797   3.778   1.234   0.447  0.5107  0.6916 -0.3137
  200SOL    HW2  798   3.689   1.259   0.421  0.1014  0.0624  0.4580
  200SOL    HW3  799   3.831   1.245   0.368 -0.9081 -2.2509 -1.7659
  200SOL    MW4  800   3.773   1.239   0.433  0.2695  0.2204 -0.4034
  201SOL     OW  801   4.168   1.050   0.400 -0.1767 -0.3950 -0.1034
  201SOL    HW2  802   4.077   1.038   0.429 -0.1639  1.3918  0.7986
  201SOL    HW3  803   4.177   1.145   0.392  1.3390 -0.6157 -1.1421
  201SOL    MW4  804   4.157   1.061   0.403  0.0249 -0.1884 -0.1214
  202SOL     OW  805   3.744   0.786   0.437 -0.2813 -0.4767  0.4390
  202SOL    HW2  806   3.684   0.793   0.511 -0.1681 -0.7025  0.5543
  202SOL    HW3  807   3.776   0.696   0.441  2.1733  0.4255  1.9997
  202SOL    MW4  808   3.740   0.775   0.447  0.0575 -0.3875  0.6602
  203SOL     OW  809   3.130   1.381   0.444  0.3471  0.0747  0.2009
  203SOL    HW2  810   3.207   1.326   0.430  0.2814 -0.3376  1.4067
  203SOL    HW3  811   3.164   1.470   0.445  0.9689 -0.1639  1.7246
  203SOL    MW4  812   3.145   1.385   0.442  0.4205 -0.0112  0.5610
  204SOL     OW  813   3.506   1.322   0.437 -0.3650  0.4197 -0.0928
  204SOL    HW2  814   3.467   1.298   0.521  2.1053 -0.2852  0.8916
  204SOL    HW3  815   3.510   1.418   0.440 -1.3694  0.4689  0.0623
  204SOL    MW4  816   3.501   1.332   0.448 -0.1716  0.3332  0.0575
  205SOL     OW  817   3.787   2.881   0.441  0.4312  0.1227 -0.3213
  205SOL    HW2  818   3.836   2.921   0.369 -0.4726 -0.8513 -1.4925
  205SOL    HW3  819   3.723   2.947   0.466  0.0520  0.0561 -1.1189
  205SOL    MW4  820   3.785   2.895   0.435  0.2619 -0.0146 -0.5811
  206SOL     OW  821   4.233   2.676   0.376  0.0435  0.1892 -0.7314
  206SOL    HW2  822   4.153   2.623   0.373  0.3898 -0.2917 -3.8232
  206SOL    HW3  823   4.230   2.720   0.460 -1.9200 -2.2227  0.5374
  206SOL    MW4  824   4.222   2.675   0.387 -0.1699 -0.1925 -0.9719
  207SOL     OW  825   2.454   2.218   0.391 -0.1859 -0.1525  0.0650
  207SOL    HW2  826   2.549   2.227   0.387 -0.1773  0.0027  0.6804
  207SOL    HW3  827   2.423   2.304   0.419 -0.5336 -0.1109 -0.4301
  207SOL    MW4  828   2.463   2.231   0.394 -0.2306 -0.1265  0.0808
  208SOL     OW  829   1.897   3.174   0.325  0.0404 -0.0791 -0.4227
  208SOL    HW2  830   1.971   3.234   0.327  1.4589 -1.7447 -1.2827
  208SOL    HW3  831   1.931   3.094   0.366 -1.2989 -0.8486 -0.8106
  208SOL    MW4  832   1.911   3.171   0.331  0.0508 -0.4004 -0.5874
  209SOL     OW  833   4.016   2.512   0.421  0.1787  0.4264  0.2486
  209SOL    HW2  834   3.925   2.537   0.435  0.1418  0.6756 -0.3946
  209SOL    HW3  835   4.011   2.433   0.367  0.3107 -0.6394  1.7622
  209SOL    MW4  836   4.003   2.505   0.416  0.1913  0.3187  0.3635
  210SOL     OW  837   3.382   3.019   0.399  0.1331  0.0580 -0.3450
  210SOL    HW2  838   3.328   2.940   0.401  0.3222 -0.1799 -2.6564
  210SOL    HW3  839   3.323   3.086   0.364  0.1953  0.7665  0.8887
  210SOL    MW4  840   3.367   3.018   0.394  0.1663  0.1201 -0.4872
  211SOL     OW  841   3.479   2.513   0.476  0.1879 -0.0219 -0.2247
  211SOL    HW2  842   3.414   2.451   0.442  1.0973 -0.9849 -0.2419
  211SOL    HW3  843   3.518   2.468   0.551 -0.0449  1.0750  0.5766
  211SOL    MW4  844   3.475   2.499   0.481  0.2772 -0.0042 -0.1212
  212SOL     OW  845   4.281   3.400   0.704 -0.0876 -0.2267 -0.0533
  212SOL    HW2  846   4.310   3.311   0.725  0.4033 -0.1258 -0.2912
  212SOL    HW3  847   4.188   3.401   0.726  0.0960 -0.5482  0.7670
  212SOL    MW4  848   4.272   3.389   0.710  0.0014 -0.2558  0.0235
  213SOL     OW  849   3.029   2.355   0.419 -0.1640 -0.4053  0.4456
  213SOL    HW2  850   3.014   2.449   0.408 -0.2376 -0.4245  0.3813
  213SOL    HW3  851   3.074   2.347   0.503 -1.4417 -0.4433  1.1403
  213SOL    MW4  852   3.033   2.366   0.429 -0.3423 -0.4129  0.5287
  214SOL     OW  853   2.983   3.562   0.560 -0.0496 -0.4005 -0.2984
  214SOL    HW2  854   3.046   3.630   0.536  0.4319 -2.2926 -4.8689
  214SOL    HW3  855   2.897   3.604   0.553  0.3711  0.4728 -0.2691
  214SOL    MW4  856   2.980   3.577   0.556  0.0695 -0.5349 -0.8976
  215SOL     OW  857   4.379   2.951   0.277 -0.2936 -0.1988  0.5402
  215SOL    HW2  858   4.361   2.859   0.296 -1.4862 -0.6534 -2.5739
  215SOL    HW3  859   4.311   2.999   0.324 -0.6326 -0.9931  0.8751
  215SOL    MW4  860   4.368   2.945   0.286 -0.4957 -0.3635  0.1735
  216SOL     OW  861   3.903   3.756   0.434 -0.1119 -0.1040 -0.4753
  216SOL    HW2  862   3.967   3.827   0.427 -0.3512 -0.0040 -1.6536
  216SOL    HW3  863   3.844   3.783   0.505  1.0952 -0.1639  0.5813
  216SOL    MW4  864   3.904   3.769   0.443  0.0158 -0.0987 -0.4913
  217SOL     OW  865   3.143   0.030   0.496 -0.3397  0.1978  0.0379
  217SOL    HW2  866   3.208   0.090   0.462  0.8013 -0.4734  0.9946
  217SOL    HW3  867   3.140   0.048   0.590 -1.9493  0.6117 -0.0703
  217SOL    MW4  868   3.151   0.040   0.504 -0.4015  0.1639  0.1498
  218SOL     OW  869   4.289   4.469   0.519  0.2599  0.3343 -0.5260
  218SOL    HW2  870   4.331   4.552   0.543 -0.0911  1.0851 -2.4405
  218SOL    HW3  871   4.245   4.487   0.436 -0.9155 -1.4210 -0.3217
  218SOL    MW4  872   4.288   4.482   0.511  0.0585  0.2018 -0.7516
  219SOL     OW  873   3.876   0.538   0.429  0.0190  0.1144 -0.0990
  219SOL    HW2  874   3.872   0.498   0.516  0.0399  1.2772  0.4387
  219SOL    HW3  875   3.837   0.472   0.371 -1.1047 -0.1848  0.9704
  219SOL    MW4  876   3.870   0.524   0.433 -0.1265  0.2283  0.1130
  220SOL     OW  877   4.081   1.831   0.410 -0.6936  0.3781 -0.3059
  220SOL    HW2  878   4.138   1.755   0.420 -1.3325 -0.2861 -1.6012
  220SOL    HW3  879   4.140   1.907   0.414  0.0357 -0.2135  0.2248
  220SOL    MW4  880   4.096   1.831   0.412 -0.6816  0.2124 -0.4068
  221SOL     OW  881   3.905   4.565   0.509  0.6022 -0.2254  0.2490
  221SOL    HW2  882   3.879   4.473   0.499  0.6303 -0.1261 -0.7466
  221SOL    HW3  883   3.972   4.563   0.577  0.6041 -0.9443  0.2346
  221SOL    MW4  884   3.911   4.553   0.516  0.6062 -0.3071  0.1158
  222SOL     OW  885   4.459   1.914   0.368  0.5402 -0.6425 -0.4764
  222SOL    HW2  886   4.400   1.848   0.405  0.6924 -0.6283 -0.2054
  222SOL    HW3  887   4.402   1.980   0.330  0.3861 -0.9320 -0.7476
  222SOL    MW4  888   4.444   1.914   0.368  0.5399 -0.6788 -0.4764
  223SOL     OW  889   2.896   0.178   0.419  0.5142 -0.0945  0.3246
  223SOL    HW2  890   2.979   0.139   0.444  0.8094  0.0146 -0.5041
  223SOL    HW3  891   2.911   0.217   0.333 -0.4007 -0.1122  0.1436
  223SOL    MW4  892   2.909   0.178   0.411  0.4324 -0.0824  0.1914
  224SOL     OW  893   0.006   1.303   0.444 -0.2530 -0.7339  0.6518
  224SOL    HW2  894   0.099   1.294   0.424 -0.5168 -0.9657 -0.5250
  224SOL    HW3  895   0.000   1.382   0.497  0.7930 -1.5114  1.9369
  224SOL    MW4  896   0.018   1.312   0.448 -0.1498 -0.8671  0.6661
  225SOL     OW  897   0.395   1.463   0.285 -0.2178 -0.1246  0.0368
  225SOL    HW2  898   0.481   1.496   0.310  0.0745 -2.3168  2.1140
  225SOL    HW3  899   0.335   1.536   0.301  1.1033  1.0947 -0.4862
  225SOL    MW4  900   0.399   1.477   0.290 -0.0049 -0.2530  0.2419
  226SOL     OW  901   3.844   2.029   0.418  0.3301 -0.2709 -0.4112
  226SOL    HW2  902   3.899   1.951   0.412 -0.6986 -1.1821  1.4348
  226SOL    HW3  903   3.755   1.997   0.401  0.2510  1.0880 -2.8324
  226SOL    MW4  904   3.839   2.014   0.415  0.1839 -0.2118 -0.4871
  227SOL     OW  905   3.470   1.601   0.484  0.0121  0.5746 -0.0275
  227SOL    HW2  906   3.495   1.640   0.567 -0.3133 -0.5043  0.5971
  227SOL    HW3  907   3.380   1.629   0.470  0.5645  2.0336 -0.8084
  227SOL    MW4  908   3.462   1.610   0.493  0.0420  0.6247 -0.0481
  228SOL     OW  909   0.264   2.567   0.455 -0.2016  0.4224  0.3660
  228SOL    HW2  910   0.282   2.501   0.387  0.1031  0.6337  0.2402
  228SOL    HW3  911   0.169   2.578   0.453  0.0583  2.8154 -2.2975
  228SOL    MW4  912   0.254   2.560   0.446 -0.1271  0.7660 -0.0020
  229SOL     OW  913   4.095   2.442   0.676 -0.3137  0.6415 -0.2777
  229SOL    HW2  914   4.081   2.460   0.583 -1.0885 -1.8203 -0.6776
  229SOL    HW3  915   4.020   2.389   0.701  2.3994 -2.9944  0.4718
  229SOL    MW4  916   4.083   2.438   0.667 -0.0580 -0.1630 -0.2316
  230SOL     OW  917   0.125   2.120   0.463  0.5033  0.3396  0.5432
  230SOL    HW2  918   0.084   2.037   0.436 -0.7628  0.7951  1.0469
  230SOL    HW3  919   0.214   2.115   0.426  0.1835 -0.8891 -0.1154
  230SOL    MW4  920   0.132   2.108   0.454  0.2940  0.2376  0.5228
  231SOL     OW  921   4.243   2.820   0.626  0.0180  0.1969  0.1164
  231SOL    HW2  922   4.200   2.905   0.637  0.2721  0.2581  0.6871
  231SOL    HW3  923   4.198   2.762   0.687 -1.4197 -0.5657 -1.6472
  231SOL    MW4  924   4.231   2.824   0.636 -0.1382  0.1044 -0.0410
  232SOL     OW  925   3.838   2.446   0.144  0.0030  0.2942 -0.1380
  232SOL    HW2  926   3.851   2.491   0.061 -0.2257 -1.0011 -0.8903
  232SOL    HW3  927   3.795   2.511   0.200 -0.9609  0.7885 -1.4133
  232SOL    MW4  928   3.834   2.461   0.141 -0.1543  0.1885 -0.4055
  233SOL     OW  929   4.366   4.042   0.461  0.0108  0.2558 -0.5701
  233SOL    HW2  930   4.370   4.070   0.552 -1.5987  0.0305 -0.4258
  233SOL    HW3  931   4.379   3.947   0.464  2.8558  0.5955 -0.8412
  233SOL    MW4  932   4.368   4.033   0.473  0.1738  0.2709 -0.5868
  234SOL     OW  933   3.505   4.134   0.390 -0.2193 -0.1981  0.5102
  234SOL    HW2  934   3.546   4.210   0.432 -0.7811  0.3067  0.1649
  234SOL    HW3  935   3.565   4.110   0.320 -0.4792  0.5040  0.0405
  234SOL    MW4  936   3.518   4.141   0.386 -0.3277 -0.0389  0.4027
  235SOL     OW  937   0.486   3.976   0.609  0.0095  0.4167 -0.2853
  235SOL    HW2  938   0.398   4.012   0.621  0.6835  1.9477  0.2253
  235SOL    HW3  939   0.533   4.042   0.558  1.3052  0.3509  0.7666
  235SOL    MW4  940   0.481   3.990   0.604  0.2694  0.6100 -0.0792
  236SOL     OW  941   3.989   3.565   0.690  0.4301 -0.5586 -0.2835
  236SOL    HW2  942   4.051   3.636   0.678  0.6379 -0.9423 -1.6298
  236SOL    HW3  943   3.978   3.528   0.602 -0.9043 -1.1491  0.1134
  236SOL    MW4  944   3.995   3.569   0.677  0.2815 -0.6871 -0.4088
  237SOL     OW  945   0.171   3.005   0.283  0.4618 -0.2528 -0.0772
  237SOL    HW2  946   0.215   2.936   0.331  0.3856 -0.1150  0.1909
  237SOL    HW3  947   0.078   2.988   0.296  0.4358  1.4724  2.2595
  237SOL    MW4  948   0.164   2.994   0.291  0.4483 -0.0070  0.2665
  238SOL     OW  949   3.228   4.197   0.380  0.2471 -0.0706  0.1847
  238SOL    HW2  950   3.191   4.285   0.373  0.0429 -0.2353 -0.8910
  238SOL    HW3  951   3.321   4.209   0.360  0.2104 -0.1020 -0.0077
  238SOL    MW4  952   3.235   4.210   0.377  0.2153 -0.0965  0.0174
  239SOL     OW  953   3.945   4.267   0.430  0.2292  0.1572 -0.2617
  239SOL    HW2  954   3.996   4.269   0.512 -2.3338  1.7860  1.3490
  239SOL    HW3  955   3.967   4.182   0.391  2.8570  0.0975  1.2119
  239SOL    MW4  956   3.955   4.256   0.436  0.2378  0.3642  0.1452
  240SOL     OW  957   3.673   4.337   0.500  0.0141  0.4313 -0.4037
  240SOL    HW2  958   3.649   4.414   0.448 -0.3878 -1.0109 -2.4102
  240SOL    HW3  959   3.752   4.303   0.457 -0.0188 -0.4970  0.2542
  240SOL    MW4  960   3.680   4.343   0.488 -0.0433  0.1185 -0.5816
  241SOL     OW  961   2.832   4.396   0.510  0.3674  0.9212  0.0291
  241SOL    HW2  962   2.850   4.389   0.604  1.6437  0.7073 -0.2303
  241SOL    HW3  963   2.791   4.482   0.499  0.9423  1.2782  0.6673
  241SOL    MW4  964   2.829   4.406   0.521  0.6117  0.9401  0.0791
  242SOL     OW  965   0.217   0.008   0.886  0.2019 -0.3622 -0.4159
  242SOL    HW2  966   0.194  -0.073   0.841  0.3406  0.4344 -1.9648
  242SOL    HW3  967   0.141   0.065   0.873  0.1360 -0.2179  0.5877
  242SOL    MW4  968   0.204   0.005   0.878  0.2115 -0.2380 -0.4879
  243SOL     OW  969   4.465   0.244   0.377 -0.1289  0.0500 -0.2537
  243SOL    HW2  970   4.530   0.237   0.308  0.0434 -0.0570 -0.0816
  243SOL    HW3  971   4.409   0.318   0.351 -2.3423 -2.2735 -2.4354
  243SOL    MW4  972   4.466   0.253   0.365 -0.3982 -0.2706 -0.5188
  244SOL     OW  973   4.478   0.173   0.884  0.6321  0.0910  0.1994
  244SOL    HW2  974   4.481   0.232   0.959  3.0855 -0.9348  0.9649
  244SOL    HW3  975   4.465   0.230   0.809  0.4702  1.3542  1.1782
  244SOL    MW4  976   4.477   0.188   0.884  0.9344  0.1223  0.4295
  245SOL     OW  977   4.489   0.334   0.644 -0.1072  0.0791  0.0700
  245SOL    HW2  978   4.489   0.290   0.558 -0.2709 -1.7574  0.9730
  245SOL    HW3  979   4.577   0.371   0.652  0.5519 -1.3853 -0.1083
  245SOL    MW4  980   4.500   0.333   0.634 -0.0418 -0.3564  0.1656
  246SOL     OW  981   0.217   0.828   0.839  0.3771  0.3987  0.4252
  246SOL    HW2  982   0.211   0.787   0.925 -0.2785 -0.8076 -0.1784
  246SOL    HW3  983   0.127   0.835   0.809  0.7623 -2.0692 -1.4637
  246SOL    MW4  984   0.205   0.823   0.846  0.3414 -0.0861  0.0964
  247SOL     OW  985   4.472   0.882   0.716 -0.0433 -0.2937 -0.3715
  247SOL    HW2  986   4.393   0.847   0.757  0.0169 -1.6527 -1.3810
  247SOL    HW3  987   4.448   0.894   0.624  0.5997  0.2990 -0.4685
  247SOL    MW4  988   4.459   0.879   0.709  0.0495 -0.3948 -0.5175
  248SOL     OW  989   0.022   1.154   0.780 -0.0009  0.2585  0.2740
  248SOL    HW2  990   0.007   1.153   0.874  0.9882  0.8898  0.4419
  248SOL    HW3  991   0.024   1.062   0.755 -1.2263  0.1008  0.7027
  248SOL    MW4  992   0.020   1.142   0.789 -0.0320  0.3210  0.3527
  249SOL     OW  993   0.244   1.320   0.701 -0.3070  0.1375 -0.5757
  249SOL    HW2  994   0.172   1.272   0.743 -0.7052  0.7012 -0.6134
  249SOL    HW3  995   0.243   1.289   0.610  0.1044 -0.5571 -0.3492
  249SOL    MW4  996   0.234   1.310   0.694 -0.3052  0.1203 -0.5508
  250SOL     OW  997   0.249   1.575   0.839  0.3569 -0.2972 -0.0270
  250SOL    HW2  998   0.326   1.626   0.814  1.0367 -1.2620  0.0374
  250SOL    HW3  999   0.260   1.492   0.793 -1.7411  0.3131 -1.7031
  250SOL    MW4 1000   0.261   1.571   0.830  0.1698 -0.3439 -0.2396
  251SOL     OW 1001   4.367   2.257   0.523  0.4605  0.3574 -0.1325
  251SOL    HW2 1002   4.382   2.351   0.509 -0.4892  0.6025  0.4749
  251SOL    HW3 1003   4.448   2.215   0.494  1.2625  1.4411  0.5361
  251SOL    MW4 1004   4.379   2.264   0.517  0.4410  0.5327  0.0358
  252SOL     OW 1005   0.004   1.954   0.828  0.3056  0.0272  0.1122
  252SOL    HW2 1006   0.071   2.011   0.789  1.4086 -1.5658 -0.3727
  252SOL    HW3 1007   0.017   1.870   0.785 -0.5740 -0.9008  1.6318
  252SOL    MW4 1008   0.014   1.950   0.817  0.3351 -0.3054  0.2487
  253SOL     OW 1009   0.214   2.128   0.732  0.3362 -0.2942 -0.1111
  253SOL    HW2 1010   0.231   2.218   0.757 -0.7219  0.1769 -1.0609
  253SOL    HW3 1011   0.189   2.133   0.639 -0.2201 -1.4988 -0.0340
  253SOL    MW4 1012   0.213   2.140   0.723  0.1232 -0.3910 -0.2262
  254SOL     OW 1013   0.268   2.392   0.820  0.3512  0.3308 -0.1906
  254SOL    HW2 1014   0.294   2.372   0.910  0.8967  0.9640 -0.2074
  254SOL    HW3 1015   0.346   2.432   0.781 -0.5598  1.9942 -0.3213
  254SOL    MW4 1016   0.282   2.394   0.827  0.3029  0.6338 -0.2101
  255SOL     OW 1017   0.016   2.512   0.789  0.0643  0.3070  0.5066
  255SOL    HW2 1018  -0.046   2.445   0.820 -1.5230  1.4673 -0.1034
  255SOL    HW3 1019   0.102   2.473   0.805 -0.8146 -1.8656  0.2465
  255SOL    MW4 1020   0.019   2.498   0.796 -0.2611  0.1735  0.3918
  256SOL     OW 1021   0.107   2.765   0.877  0.0710 -0.5229 -0.0285
  256SOL    HW2 1022   0.081   2.768   0.969 -0.0354  0.4367 -0.0859
  256SOL    HW3 1023   0.078   2.678   0.847 -1.8227 -0.0340  0.2830
  256SOL    MW4 1024   0.099   2.754   0.886 -0.1929 -0.3318  0.0051
  257SOL     OW 1025   0.314   3.089   0.692 -0.5584 -0.4785 -0.3790
  257SOL    HW2 1026   0.381   3.023   0.677 -1.0659 -0.9668 -0.5268
  257SOL    HW3 1027   0.232   3.045   0.668 -1.1098 -0.4315  1.3631
  257SOL    MW4 1028   0.312   3.074   0.687 -0.6981 -0.5367 -0.1687
  258SOL     OW 1029   0.249   3.273   0.868  0.1539  0.0886 -0.3187
  258SOL    HW2 1030   0.250   3.230   0.953  0.2624  1.4775  0.4043
  258SOL    HW3 1031   0.275   3.206   0.806  0.3276 -0.8658  0.7798
  258SOL    MW4 1032   0.252   3.259   0.871  0.1911  0.1459 -0.0784
  259SOL     OW 1033   0.660   3.014   0.134 -0.2463 -0.6273 -0.0135
  259SOL    HW2 1034   0.721   3.044   0.067 -1.7646  1.3904 -0.5602
  259SOL    HW3 1035   0.575   3.010   0.089 -1.5679  2.1307  2.0502
  259SOL    MW4 1036   0.657   3.017   0.119 -0.6210  0.0028  0.1866
  260SOL     OW 1037   0.033   3.477   0.802 -0.4594 -0.1014 -0.0332
  260SOL    HW2 1038  -0.050   3.447   0.765 -1.0470  0.4335  0.8496
  260SOL    HW3 1039   0.092   3.403   0.791 -0.9083 -0.3154 -1.1135
  260SOL    MW4 1040   0.030   3.463   0.796 -0.5961 -0.0590 -0.0593
  261SOL     OW 1041   0.120   3.709   0.680 -0.2484 -0.8630  0.1839
  261SOL    HW2 1042   0.092   3.626   0.719 -1.1696 -0.5894  0.1177
  261SOL    HW3 1043   0.052   3.729   0.616 -0.1757  0.0822  0.3964
  261SOL    MW4 1044   0.107   3.700   0.677 -0.3604 -0.7022  0.2032
  262SOL     OW 1045   0.108   3.898   0.895 -0.8962  0.1721 -0.2625
  262SOL    HW2 1046   0.160   3.872   0.971 -2.0870  1.5831  1.0697
  262SOL    HW3 1047   0.120   3.827   0.833  1.3168 -0.2995  0.6467
  262SOL    MW4 1048   0.116   3.885   0.897 -0.7614  0.2960  0.0332
  263SOL     OW 1049   4.341   3.946   0.913  0.3234  0.4366 -0.0961
  263SOL    HW2 1050   4.297   3.908   0.989  0.0828  0.0305 -0.4339
  263SOL    HW3 1051   4.431   3.915   0.919 -0.0310 -0.7682 -0.7382
  263SOL    MW4 1052   4.347   3.937   0.924  0.2449  0.2240 -0.2254
  264SOL     OW 1053   4.446   4.374   0.885  0.1503  0.1124  0.2203
  264SOL    HW2 1054   4.404   4.460   0.888 -2.0704 -0.8669 -1.4940
  264SOL    HW3 1055   4.429   4.335   0.971 -1.9574 -0.0140 -0.2331
  264SOL    MW4 1056   4.438   4.380   0.897 -0.4208 -0.0335 -0.0657
  265SOL     OW 1057   0.204   4.434   0.766  0.3526 -0.0630 -0.2273
  265SOL    HW2 1058   0.112   4.423   0.791  0.6767  0.8004  1.4213
  265SOL    HW3 1059   0.201   4.458   0.673 -1.1181  0.3965 -0.0720
  265SOL    MW4 1060   0.191   4.436   0.757  0.2013  0.1115  0.0107
  266SOL     OW 1061   0.643   4.653   0.862 -0.0399 -0.1396  0.4015
  266SOL    HW2 1062   0.639   4.646   0.958  1.2255  0.3695  0.4929
  266SOL    HW3 1063   0.565   4.703   0.839 -0.3204 -0.2142  1.1688
  266SOL    MW4 1064   0.632   4.658   0.872  0.0901 -0.0823  0.5148
  267SOL     OW 1065   0.427   0.161   0.794 -0.3592  0.2389 -0.2594
  267SOL    HW2 1066   0.359   0.101   0.825  0.8208 -0.4248  1.1003
  267SOL    HW3 1067   0.453   0.124   0.709 -0.3836 -0.5797  0.0800
  267SOL    MW4 1068   0.422   0.148   0.787 -0.2068  0.0434 -0.0352
  268SOL     OW 1069   0.421   0.442   0.861  0.3864  0.0958 -0.1539
  268SOL    HW2 1070   0.493   0.481   0.812 -0.8498  0.1156 -2.0258
  268SOL    HW3 1071   0.424   0.349   0.839 -0.0614  0.0729 -0.1278
  268SOL    MW4 1072   0.431   0.435   0.852  0.1642  0.0954 -0.3974
  269SOL     OW 1073   0.655   0.513   0.729  0.2998 -0.0735 -0.2059
  269SOL    HW2 1074   0.719   0.458   0.775  2.4191  2.6516  0.1990
  269SOL    HW3 1075   0.665   0.489   0.637  3.1000  1.4452 -0.3479
  269SOL    MW4 1076   0.665   0.502   0.723  0.9489  0.4864 -0.1712
  270SOL     OW 1077   0.678   0.768   0.829 -0.2504 -0.1596 -0.4289
  270SOL    HW2 1078   0.602   0.803   0.782 -0.3828 -1.3049 -1.0971
  270SOL    HW3 1079   0.692   0.681   0.791 -0.2784 -1.0792  1.5556
  270SOL    MW4 1080   0.670   0.761   0.818 -0.2716 -0.4320 -0.2552
  271SOL     OW 1081   0.462   0.940   0.768  0.1231  0.0082 -0.6518
  271SOL    HW2 1082   0.480   1.028   0.799  0.3295 -0.5489  0.8743
  271SOL    HW3 1083   0.377   0.917   0.807  0.4684 -0.7674 -0.3401
  271SOL    MW4 1084   0.453   0.948   0.777  0.1959 -0.1677 -0.4093
  272SOL     OW 1085   0.458   1.211   0.850  0.0547 -0.4151 -0.8026
  272SOL    HW2 1086   0.540   1.259   0.841  0.0804 -0.0704  1.1964
  272SOL    HW3 1087   0.397   1.257   0.792  0.0967  2.0470  1.0397
  272SOL    MW4 1088   0.461   1.223   0.841  0.0636 -0.0448 -0.2957
  273SOL     OW 1089   0.593   1.781   0.236  0.3526  0.0223 -0.2828
  273SOL    HW2 1090   0.607   1.787   0.142  0.4591  0.3309 -0.2490
  273SOL    HW3 1091   0.626   1.694   0.261  1.6034  0.4774 -0.3057
  273SOL    MW4 1092   0.599   1.770   0.227  0.5317  0.1230 -0.2814
  274SOL     OW 1093   0.724   1.369   0.826  0.0807  0.0961  0.0425
  274SOL    HW2 1094   0.723   1.411   0.912  2.2378  1.8187 -0.7181
  274SOL    HW3 1095   0.685   1.434   0.767 -1.1666 -0.9768 -0.3360
  274SOL    MW4 1096   0.719   1.383   0.830  0.2008  0.1818 -0.1078
  275SOL     OW 1097   0.425   1.733   0.691 -0.1992 -0.0457 -0.0893
  275SOL    HW2 1098   0.419   1.737   0.596 -1.7161  1.2712  0.0337
  275SOL    HW3 1099   0.440   1.824   0.717  1.2398 -0.5514  0.8690
  275SOL    MW4 1100   0.426   1.746   0.682 -0.2095  0.0613  0.0533
  276SOL     OW 1101   0.465   1.988   0.776 -0.1827  0.0888  0.2667
  276SOL    HW2 1102   0.460   1.986   0.872 -0.2819 -0.2067  0.2564
  276SOL    HW3 1103   0.387   2.038   0.749  0.1875  0.7324  0.3639
  276SOL    MW4 1104   0.454   1.995   0.785 -0.1470  0.1348  0.2782
  277SOL     OW 1105   0.719   2.064   0.736 -0.1943 -0.6558 -0.0264
  277SOL    HW2 1106   0.628   2.038   0.748 -0.3593 -0.2421 -0.3424
  277SOL    HW3 1107   0.725   2.087   0.643  0.3631 -1.1802 -0.1261
  277SOL    MW4 1108   0.708   2.064   0.725 -0.1426 -0.6704 -0.0812
  278SOL     OW 1109   0.786   2.337   0.823  0.4492 -0.6255 -0.3681
  278SOL    HW2 1110   0.764   2.353   0.915 -0.5929 -1.2722 -0.5007
  278SOL    HW3 1111   0.749   2.251   0.804 -0.2047 -0.0714 -1.6725
  278SOL    MW4 1112   0.778   2.328   0.833  0.2254 -0.6377 -0.5577
  279SOL     OW 1113   0.435   2.555   0.674 -0.0636 -0.0259  0.4405
  279SOL    HW2 1114   0.525   2.535   0.649 -0.1868  0.5934 -0.5441
  279SOL    HW3 1115   0.385   2.547   0.592 -0.0691  4.5039 -0.1394
  279SOL    MW4 1116   0.440   2.552   0.660 -0.0806  0.6535  0.2341
  280SOL     OW 1117   0.373   2.740   0.889  0.1732 -0.4292  0.2235
  280SOL    HW2 1118   0.406   2.673   0.829 -0.0510 -2.2063  2.0315
  280SOL    HW3 1119   0.278   2.734   0.881  0.1548  1.1021 -1.0988
  280SOL    MW4 1120   0.365   2.731   0.880  0.1412 -0.4616  0.2876
  281SOL     OW 1121   0.522   2.928   0.760 -0.3011 -0.2594 -0.0239
  281SOL    HW2 1122   0.601   2.875   0.748  0.6286  0.7198  1.5194
  281SOL    HW3 1123   0.463   2.871   0.810  0.0057 -0.4945  0.0732
  281SOL    MW4 1124   0.525   2.913   0.765 -0.1380 -0.1612  0.1925
  282SOL     OW 1125   0.654   3.131   0.855  0.1049  0.5254 -0.4766
  282SOL    HW2 1126   0.601   3.208   0.877  0.0155  0.0855  0.8842
  282SOL    HW3 1127   0.590   3.062   0.837  0.1931  0.0880  0.8241
  282SOL    MW4 1128   0.639   3.132   0.855  0.1048  0.4097 -0.1254
  283SOL     OW 1129   0.302   3.215   0.423 -0.0391  0.3078  0.1147
  283SOL    HW2 1130   0.238   3.171   0.368  0.3022 -0.6154  0.4428
  283SOL    HW3 1131   0.328   3.148   0.487  0.1196  1.1373  0.9207
  283SOL    MW4 1132   0.297   3.200   0.424  0.0269  0.2954  0.2643
  284SOL     OW 1133   0.500   3.387   0.864 -0.7949 -0.0097  0.2100
  284SOL    HW2 1134   0.524   3.403   0.955  1.0357 -1.0360 -0.0692
  284SOL    HW3 1135   0.414   3.346   0.869 -0.3090 -0.9106  1.5335
  284SOL    MW4 1136   0.492   3.384   0.877 -0.4892 -0.2639  0.3478
  285SOL     OW 1137   0.738   3.698   0.767  0.0831 -0.0971  0.1314
  285SOL    HW2 1138   0.671   3.636   0.736  0.0652  0.2812 -0.5707
  285SOL    HW3 1139   0.687   3.766   0.812 -0.0588  0.6020 -1.0904
  285SOL    MW4 1140   0.722   3.699   0.769  0.0620  0.0451 -0.1224
  286SOL     OW 1141   0.641   3.922   0.869 -0.2571  0.2717 -0.2373
  286SOL    HW2 1142   0.718   3.975   0.853  0.5333 -0.0475  2.2036
  286SOL    HW3 1143   0.577   3.951   0.804  1.9282  0.4587 -2.3651
  286SOL    MW4 1144   0.643   3.932   0.859  0.1355  0.2543 -0.1960
  287SOL     OW 1145   0.234   4.079   0.701 -0.0924 -0.0964  0.0450
  287SOL    HW2 1146   0.278   4.145   0.754 -0.5627  1.5084 -1.4896
  287SOL    HW3 1147   0.180   4.030   0.763 -0.7318  1.8073  1.0391
  287SOL    MW4 1148   0.232   4.081   0.716 -0.2388  0.3665 -0.0263
  288SOL     OW 1149   0.373   4.252   0.875  0.1105 -0.1051 -0.8379
  288SOL    HW2 1150   0.383   4.271   0.969  1.6189  0.5456 -1.1168
  288SOL    HW3 1151   0.320   4.324   0.842  1.2410  0.7431 -0.8443
  288SOL    MW4 1152   0.367   4.264   0.883  0.4587  0.0926 -0.8756
  289SOL     OW 1153   0.776   4.460   0.718 -0.7397 -0.2293 -0.0225
  289SOL    HW2 1154   0.723   4.524   0.766 -1.9246 -2.0993  1.1998
  289SOL    HW3 1155   0.830   4.418   0.785 -0.1003 -0.6652 -0.7992
  289SOL    MW4 1156   0.777   4.463   0.733 -0.8117 -0.5335  0.0363
  290SOL     OW 1157   1.092   4.627   0.853 -0.4470  0.0657  0.4949
  290SOL    HW2 1158   1.164   4.682   0.822  0.5157 -1.6472 -0.3587
  290SOL    HW3 1159   1.013   4.676   0.828  0.3812  1.6865  0.9440
  290SOL    MW4 1160   1.091   4.641   0.845 -0.2107  0.0535  0.4415
  291SOL     OW 1161   0.886   0.116   0.785  0.1739  0.3634 -0.4272
  291SOL    HW2 1162   0.873   0.204   0.821 -0.6391 -0.4353  1.2989
  291SOL    HW3 1163   0.805   0.070   0.807  0.4932 -0.7385 -1.5600
  291SOL    MW4 1164   0.873   0.122   0.793  0.1088  0.1126 -0.3489
  292SOL     OW 1165   0.852   0.380   0.871 -0.2749  0.6206  0.6032
  292SOL    HW2 1166   0.835   0.385   0.965 -0.2826  1.4494  0.5589
  292SOL    HW3 1167   0.942   0.410   0.861 -0.6424  1.5920  0.2250
  292SOL    MW4 1168   0.861   0.384   0.882 -0.3244  0.8581  0.5475
  293SOL     OW 1169   1.100   0.515   0.785  0.2435 -0.6519 -0.3092
  293SOL    HW2 1170   1.193   0.495   0.795 -0.0922 -2.2976 -0.3563
  293SOL    HW3 1171   1.085   0.514   0.690  0.2097 -0.2491 -0.3081
  293SOL    MW4 1172   1.110   0.512   0.773  0.1947 -0.8159 -0.3153
  294SOL     OW 1173   1.144   0.777   0.874 -0.0770  0.1819  0.1895
  294SOL    HW2 1174   1.128   0.774   0.968 -1.2391 -2.4633 -0.0399
  294SOL    HW3 1175   1.142   0.685   0.846 -1.5772  1.0056 -2.7031
  294SOL    MW4 1176   1.141   0.764   0.882 -0.4283 -0.0584 -0.2224
  295SOL     OW 1177   0.944   1.146   0.892 -0.1629  0.5864 -0.4387
  295SOL    HW2 1178   0.919   1.062   0.852 -0.9937  0.0597  1.1292
  295SOL    HW3 1179   0.874   1.206   0.865  0.0597  0.6050 -0.9844
  295SOL    MW4 1180   0.931   1.143   0.883 -0.2431  0.5193 -0.3038
  296SOL     OW 1181   1.074   1.300   0.521  0.0953  0.3499 -0.0893
  296SOL    HW2 1182   1.077   1.209   0.492  0.2789  0.6527 -1.0326
  296SOL    HW3 1183   1.157   1.338   0.493 -0.5330  1.1605 -0.9285
  296SOL    MW4 1184   1.085   1.293   0.513  0.0366  0.4968 -0.3244
  297SOL     OW 1185   1.169   1.286   0.790  0.1862 -0.4027 -0.2984
  297SOL    HW2 1186   1.137   1.290   0.700 -0.7148 -1.9613 -0.0503
  297SOL    HW3 1187   1.098   1.245   0.839  0.7964  0.1622  1.0701
  297SOL    MW4 1188   1.156   1.281   0.784  0.1479 -0.5338 -0.0851
  298SOL     OW 1189   1.133   1.544   0.846  0.4178 -0.0330  0.0512
  298SOL    HW2 1190   1.062   1.587   0.798  1.3154  0.2840 -1.0317
  298SOL    HW3 1191   1.126   1.452   0.821  0.4615  0.0208 -0.1670
  298SOL    MW4 1192   1.123   1.538   0.836  0.5420  0.0159 -0.1205
  299SOL     OW 1193   0.918   1.651   0.677 -0.3046 -0.4395 -0.3136
  299SOL    HW2 1194   0.929   1.746   0.678  1.5409 -0.5803 -2.0248
  299SOL    HW3 1195   0.917   1.628   0.584  1.6937 -2.3175  0.0752
  299SOL    MW4 1196   0.919   1.660   0.665  0.2026 -0.7059 -0.4880
  300SOL     OW 1197   0.970   1.953   0.748  0.1864  0.6450 -0.0104
  300SOL    HW2 1198   0.993   1.928   0.838  0.0492 -0.7174 -0.3359
  300SOL    HW3 1199   0.875   1.968   0.751 -0.0905 -0.9296 -0.2437
  300SOL    MW4 1200   0.960   1.952   0.760  0.1318  0.2575 -0.0842
  301SOL     OW 1201   1.029   2.222   0.652  0.7475  0.3127 -0.3332
  301SOL    HW2 1202   0.992   2.146   0.698  0.5929  0.0650 -0.8628
  301SOL    HW3 1203   1.094   2.257   0.713  1.0134 -0.4039 -0.1953
  301SOL    MW4 1204   1.032   2.216   0.666  0.7622  0.1855 -0.3848
  302SOL     OW 1205   1.230   2.290   0.847 -0.0749  0.1794 -0.0378
  302SOL    HW2 1206   1.180   2.299   0.929 -0.8512  2.1429 -0.7202
  302SOL    HW3 1207   1.240   2.379   0.814  1.1049 -0.5037 -1.5932
  302SOL    MW4 1208   1.225   2.303   0.854 -0.0217  0.3484 -0.3331
  303SOL     OW 1209   0.724   2.551   0.652 -0.7287 -0.5385 -0.1346
  303SOL    HW2 1210   0.736   2.522   0.561 -0.5156 -0.4592 -0.1318
  303SOL    HW3 1211   0.770   2.486   0.704 -1.5969 -1.0714 -0.0237
  303SOL    MW4 1212   0.731   2.539   0.647 -0.8152 -0.5983 -0.1196
  304SOL     OW 1213   0.956   2.853   0.890  1.0666 -0.3794  0.1443
  304SOL    HW2 1214   0.933   2.801   0.967 -1.6928  0.4813 -0.0488
  304SOL    HW3 1215   0.883   2.839   0.829  1.5645  1.6249 -0.9402
  304SOL    MW4 1216   0.943   2.844   0.892  0.7682 -0.0014 -0.0243
  305SOL     OW 1217   1.153   2.775   0.705 -0.2718 -0.2156 -0.4676
  305SOL    HW2 1218   1.215   2.704   0.718 -0.9989 -0.8694 -0.5141
  305SOL    HW3 1219   1.092   2.766   0.779  0.3150  1.0858  0.1882
  305SOL    MW4 1220   1.153   2.764   0.717 -0.2903 -0.1302 -0.3872
  306SOL     OW 1221   1.087   3.105   0.869  0.4016 -0.7276 -0.3100
  306SOL    HW2 1222   1.030   3.161   0.816  0.0514 -1.1258 -0.3629
  306SOL    HW3 1223   1.038   3.023   0.878 -0.1195 -0.2168  1.7173
  306SOL    MW4 1224   1.073   3.101   0.863  0.2867 -0.7128 -0.0495
  307SOL     OW 1225   0.904   3.247   0.742 -0.1861  0.0440  0.1313
  307SOL    HW2 1226   0.891   3.336   0.776  0.0691 -0.0150  0.3820
  307SOL    HW3 1227   0.816   3.209   0.743 -0.1913  0.0654  0.6586
  307SOL    MW4 1228   0.891   3.254   0.747 -0.1532  0.0391  0.2340
  308SOL     OW 1229   0.901   3.497   0.857 -0.3800  0.1422 -0.5184
  308SOL    HW2 1230   0.985   3.528   0.825 -0.1822 -0.5686 -0.6935
  308SOL    HW3 1231   0.842   3.572   0.846  0.8213  1.5630  2.0767
  308SOL    MW4 1232   0.904   3.511   0.852 -0.1954  0.2359 -0.1991
  309SOL     OW 1233   1.163   3.575   0.809  0.4302 -0.2864  0.1201
  309SOL    HW2 1234   1.234   3.532   0.856  0.8773 -0.2649 -0.5189
  309SOL    HW3 1235   1.201   3.597   0.724  0.2291  1.4626  0.4655
  309SOL    MW4 1236   1.178   3.572   0.804  0.4627 -0.0528  0.0813
  310SOL     OW 1237   1.077   3.823   0.882  0.2506 -0.2319  0.4758
  310SOL    HW2 1238   1.084   3.836   0.977  0.4228 -0.6838  0.5252
  310SOL    HW3 1239   1.114   3.736   0.867  1.1001  0.2270 -0.1248
  310SOL    MW4 1240   1.083   3.813   0.892  0.3854 -0.2310  0.4031
  311SOL     OW 1241   0.903   4.026   0.805  0.1587 -0.2798 -0.0877
  311SOL    HW2 1242   0.920   4.040   0.712 -0.2395 -1.0540 -0.2844
  311SOL    HW3 1243   0.957   3.950   0.827  0.0476 -0.2610  0.2482
  311SOL    MW4 1244   0.912   4.018   0.795  0.0915 -0.3795 -0.0694
  312SOL     OW 1245   0.552   4.305   0.641 -0.4477  0.2588  0.3857
  312SOL    HW2 1246   0.632   4.350   0.671  1.1018 -2.4149  0.4232
  312SOL    HW3 1247   0.505   4.284   0.721 -0.1637 -0.0136  0.4795
  312SOL    MW4 1248   0.556   4.308   0.655 -0.2058 -0.1299  0.4031
  313SOL     OW 1249   0.965   4.284   0.882  0.4221 -0.5035  0.0170
  313SOL    HW2 1250   0.933   4.198   0.854 -0.3612 -0.1291 -0.2345
  313SOL    HW3 1251   1.034   4.305   0.818 -0.9135  0.0546 -1.2525
  313SOL    MW4 1252   0.970   4.275   0.870  0.1425 -0.3805 -0.1837
  314SOL     OW 1253   1.557   4.628   0.811  0.5257  0.1997 -0.7313
  314SOL    HW2 1254   1.558   4.624   0.906 -0.3816 -1.0223 -0.7624
  314SOL    HW3 1255   1.482   4.684   0.791 -0.3715 -0.9874 -0.7505
  314SOL    MW4 1256   1.547   4.635   0.821  0.2876 -0.1182 -0.7379
  315SOL     OW 1257   1.325   0.095   0.743 -0.1216 -0.0471 -0.0614
  315SOL    HW2 1258   1.314   0.184   0.777 -0.5269  0.2068 -0.8376
  315SOL    HW3 1259   1.286   0.098   0.656  1.7129 -0.4661 -0.9119
  315SOL    MW4 1260   1.318   0.107   0.736  0.0670 -0.0689 -0.2760
  316SOL     OW 1261   1.337   0.356   0.842  0.3073  0.2557 -0.5097
  316SOL    HW2 1262   1.332   0.358   0.938  0.2960  0.5009 -0.5136
  316SOL    HW3 1263   1.427   0.381   0.823  0.4167 -0.1757 -0.5518
  316SOL    MW4 1264   1.348   0.360   0.852  0.3202  0.2311 -0.5158
  317SOL     OW 1265   1.564   0.496   0.768  0.0418 -0.1470  0.2543
  317SOL    HW2 1266   1.559   0.587   0.798  1.2353 -0.1466  0.4863
  317SOL    HW3 1267   1.647   0.464   0.803  0.2282 -0.9447 -0.8804
  317SOL    MW4 1268   1.574   0.504   0.777  0.2239 -0.2522  0.1352
  318SOL     OW 1269   1.546   0.781   0.828 -0.6635 -0.0178  0.6644
  318SOL    HW2 1270   1.613   0.834   0.785 -0.3293  0.3742  1.6644
  318SOL    HW3 1271   1.463   0.823   0.805 -0.5206 -0.1004 -0.0043
  318SOL    MW4 1272   1.544   0.793   0.819 -0.6006  0.0230  0.7081
  319SOL     OW 1273   1.318   0.929   0.738  0.1483 -0.1624  0.4801
  319SOL    HW2 1274   1.340   1.008   0.788  3.1446 -0.9719  0.5862
  319SOL    HW3 1275   1.272   0.873   0.801 -0.0181  0.5973  1.0400
  319SOL    MW4 1276   1.315   0.932   0.753  0.5216 -0.1690  0.5679
  320SOL     OW 1277   1.368   1.132   0.910 -0.1039  0.0061  0.0683
  320SOL    HW2 1278   1.439   1.176   0.865  0.8694 -1.1977  0.4060
  320SOL    HW3 1279   1.289   1.178   0.880  0.4890 -0.8637 -3.0104
  320SOL    MW4 1280   1.367   1.144   0.900  0.1027 -0.2675 -0.2934
  321SOL     OW 1281   1.559   1.289   0.751  0.0117  0.3143  0.3102
  321SOL    HW2 1282   1.536   1.379   0.774 -2.7704  0.0965 -1.3276
  321SOL    HW3 1283   1.538   1.282   0.657 -2.8189 -2.8628  1.0669
  321SOL    MW4 1284   1.553   1.300   0.741 -0.7288 -0.1336  0.1939
  322SOL     OW 1285   1.571   1.552   0.799 -0.1686  0.5279 -0.0071
  322SOL    HW2 1286   1.565   1.569   0.893  1.4808  3.0019 -0.2778
  322SOL    HW3 1287   1.488   1.585   0.763 -0.7634 -0.3408  0.5552
  322SOL    MW4 1288   1.559   1.559   0.807 -0.0295  0.7397  0.0314
  323SOL     OW 1289   1.331   1.592   0.655 -0.1496  0.1430  0.3956
  323SOL    HW2 1290   1.331   1.687   0.641  0.9329  0.0101 -0.4993
  323SOL    HW3 1291   1.267   1.579   0.725 -0.4729  1.5115  0.3713
  323SOL    MW4 1292   1.322   1.603   0.662 -0.0494  0.3060  0.2744
  324SOL     OW 1293   1.388   2.063   0.865 -0.6752  0.0436  0.1651
  324SOL    HW2 1294   1.356   2.020   0.944 -1.3976 -0.7211 -0.5463
  324SOL    HW3 1295   1.337   2.144   0.859 -0.0570  0.4993  0.9149
  324SOL    MW4 1296   1.377   2.068   0.875 -0.6889  0.0028  0.1702
  325SOL     OW 1297   1.609   2.107   0.711  0.1162 -0.0508  0.1317
  325SOL    HW2 1298   1.519   2.089   0.739  0.5804  0.3341  1.9711
  325SOL    HW3 1299   1.604   2.115   0.616 -1.9146  0.6784  0.2847
  325SOL    MW4 1300   1.596   2.105   0.702 -0.0905  0.0962  0.3946
  326SOL     OW 1301   1.615   2.376   0.817 -0.2203  0.4752  0.1138
  326SOL    HW2 1302   1.556   2.418   0.754 -0.3206  0.5841  0.2816
  326SOL    HW3 1303   1.620   2.285   0.786  0.2096  0.6714 -0.4021
  326SOL    MW4 1304   1.608   2.370   0.804 -0.1768  0.5154  0.0678
  327SOL     OW 1305   1.439   2.819   0.430 -0.4904 -0.4453 -0.1427
  327SOL    HW2 1306   1.492   2.817   0.350  0.1258 -1.6067  0.2826
  327SOL    HW3 1307   1.500   2.851   0.497 -1.2994  1.5600 -0.3395
  327SOL    MW4 1308   1.454   2.823   0.428 -0.5158 -0.3340 -0.1126
  328SOL     OW 1309   1.324   2.542   0.762 -0.0234  0.2008  0.0223
  328SOL    HW2 1310   1.347   2.552   0.670  0.7394  0.4079  0.2316
  328SOL    HW3 1311   1.375   2.609   0.807 -0.2168 -0.0465  0.6224
  328SOL    MW4 1312   1.334   2.552   0.756  0.0517  0.1955  0.1291
  329SOL     OW 1313   1.516   2.775   0.847 -0.2718  0.4938 -0.1875
  329SOL    HW2 1314   1.531   2.868   0.832  0.3101  0.5192  0.5594
  329SOL    HW3 1315   1.469   2.771   0.930 -0.8363  0.1550 -0.5172
  329SOL    MW4 1316   1.512   2.787   0.856 -0.2695  0.4524 -0.1324
  330SOL     OW 1317   1.548   3.061   0.859 -0.1386  0.6489 -0.8760
  330SOL    HW2 1318   1.563   3.055   0.953 -1.1282 -1.0611 -0.8017
  330SOL    HW3 1319   1.471   3.119   0.851 -0.5432  0.1555 -0.5835
  330SOL    MW4 1320   1.540   3.068   0.870 -0.3226  0.3582 -0.8276
  331SOL     OW 1321   1.331   3.211   0.782 -0.6722  0.0086 -0.1836
  331SOL    HW2 1322   1.251   3.172   0.816  0.4999 -2.4513 -0.1407
  331SOL    HW3 1323   1.312   3.228   0.690 -0.9593 -1.4046 -0.3949
  331SOL    MW4 1324   1.318   3.208   0.774 -0.5555 -0.5024 -0.2059
  332SOL     OW 1325   1.397   3.449   0.914  0.1749 -0.0589  0.0098
  332SOL    HW2 1326   1.471   3.491   0.870 -0.0369  0.7530  0.4179
  332SOL    HW3 1327   1.385   3.366   0.868  2.6331 -1.1311  1.2287
  332SOL    MW4 1328   1.405   3.443   0.902  0.4713 -0.0933  0.2245
  333SOL     OW 1329   1.577   3.616   0.764  0.3525 -0.1117 -0.4831
  333SOL    HW2 1330   1.669   3.594   0.781  0.6286  1.0385 -0.4329
  333SOL    HW3 1331   1.567   3.606   0.670 -0.2738 -3.1572 -0.1238
  333SOL    MW4 1332   1.588   3.612   0.754  0.3063 -0.3618 -0.4291
  334SOL     OW 1333   1.491   3.837   0.892  0.3169 -0.1464 -0.1901
  334SOL    HW2 1334   1.446   3.877   0.818 -0.2686 -0.5114 -0.0347
  334SOL    HW3 1335   1.507   3.746   0.864 -0.1245 -0.3514  0.2250
  334SOL    MW4 1336   1.487   3.830   0.878  0.1814 -0.2216 -0.1148
  335SOL     OW 1337   1.292   3.966   0.758  0.1003  0.2806  0.3290
  335SOL    HW2 1338   1.215   3.926   0.799  0.4375 -1.4684 -0.6804
  335SOL    HW3 1339   1.284   3.943   0.665  1.5583  0.5354  0.1284
  335SOL    MW4 1340   1.281   3.958   0.751  0.3372  0.0834  0.1694
  336SOL     OW 1341   1.299   4.238   0.823  0.0297 -0.2193 -0.0351
  336SOL    HW2 1342   1.381   4.282   0.802 -0.7609  0.5750 -1.4828
  336SOL    HW3 1343   1.312   4.148   0.791  0.3467 -0.1137 -0.2059
  336SOL    MW4 1344   1.312   4.232   0.816 -0.0328 -0.1006 -0.2487
  337SOL     OW 1345   1.525   4.366   0.760  0.7597  0.3818 -0.0995
  337SOL    HW2 1346   1.599   4.322   0.801 -0.1684 -1.0297  0.0677
  337SOL    HW3 1347   1.549   4.459   0.761  3.1625 -0.1877 -1.3610
  337SOL    MW4 1348   1.538   4.373   0.765  0.9543  0.1204 -0.2439
  338SOL     OW 1349   2.016   4.618   0.867  0.1652  0.1262  0.3515
  338SOL    HW2 1350   2.084   4.661   0.815 -1.0398  0.9514 -0.5744
  338SOL    HW3 1351   2.015   4.528   0.834  0.5192  0.2150  0.0886
  338SOL    MW4 1352   2.025   4.612   0.856  0.0529  0.2468  0.1947
  339SOL     OW 1353   1.799   0.110   0.800  0.1619  0.4506  0.3797
  339SOL    HW2 1354   1.867   0.050   0.830  0.3807  0.7048  0.4000
  339SOL    HW3 1355   1.717   0.067   0.823  0.2916 -0.4989 -0.8947
  339SOL    MW4 1356   1.797   0.096   0.807  0.2079  0.3589  0.2142
  340SOL     OW 1357   1.792   0.392   0.845  0.5937 -0.3581  0.1534
  340SOL    HW2 1358   1.800   0.302   0.812 -0.9822  0.0671 -1.4344
  340SOL    HW3 1359   1.849   0.443   0.788  1.2703 -0.2919  0.8816
  340SOL    MW4 1360   1.801   0.387   0.833  0.4751 -0.2933  0.0400
  341SOL     OW 1361   2.012   0.510   0.687  0.0283 -0.4984  0.8406
  341SOL    HW2 1362   2.079   0.471   0.742 -0.2848 -2.2958 -0.0150
  341SOL    HW3 1363   2.029   0.474   0.600 -1.1228  0.2203  0.3057
  341SOL    MW4 1364   2.023   0.500   0.682 -0.1649 -0.6407  0.6572
  342SOL     OW 1365   1.958   0.826   0.650  0.3152 -0.2254 -0.3125
  342SOL    HW2 1366   1.961   0.850   0.557  0.1096 -0.3583 -0.3538
  342SOL    HW3 1367   1.987   0.735   0.652  1.1689  0.0459 -0.1480
  342SOL    MW4 1368   1.963   0.817   0.638  0.4007 -0.2071 -0.2963
  343SOL     OW 1369   1.729   0.967   0.705 -0.2241  0.1207  0.0209
  343SOL    HW2 1370   1.752   1.039   0.764  0.7070  3.3356 -4.0640
  343SOL    HW3 1371   1.812   0.921   0.690 -0.7640 -1.7320  2.3918
  343SOL    MW4 1372   1.743   0.971   0.711 -0.1725  0.3004 -0.2052
  344SOL     OW 1373   1.777   1.180   0.882 -0.2190  0.2976 -0.5177
  344SOL    HW2 1374   1.852   1.213   0.832  0.0340 -0.9907 -1.0160
  344SOL    HW3 1375   1.702   1.227   0.847 -0.0800 -0.7882 -2.3359
  344SOL    MW4 1376   1.777   1.190   0.871 -0.1673 -0.0156 -0.8233
  345SOL     OW 1377   2.034   1.263   0.774 -0.2061 -0.3253  0.3901
  345SOL    HW2 1378   2.121   1.224   0.780 -0.5366 -1.2196 -0.4911
  345SOL    HW3 1379   2.026   1.294   0.684 -0.5501  0.3492  0.6478
  345SOL    MW4 1380   2.044   1.262   0.763 -0.2951 -0.3543  0.3078
  346SOL     OW 1381   2.009   1.542   0.854  0.1251 -0.0538  0.2617
  346SOL    HW2 1382   2.094   1.558   0.813  0.6600 -0.4976  1.1804
  346SOL    HW3 1383   1.990   1.450   0.836 -0.0263 -0.0356  0.3195
  346SOL    MW4 1384   2.017   1.532   0.846  0.1757 -0.1099  0.3906
  347SOL     OW 1385   1.802   1.698   0.740  0.9680  0.1916 -0.6381
  347SOL    HW2 1386   1.881   1.651   0.768  0.3290 -0.1608  0.6208
  347SOL    HW3 1387   1.730   1.642   0.768  0.2094  1.5869  0.2404
  347SOL    MW4 1388   1.803   1.684   0.748  0.7836  0.3292 -0.3561
  348SOL     OW 1389   1.791   1.963   0.870  0.1924 -0.4507  0.4607
  348SOL    HW2 1390   1.777   1.878   0.828  0.4330  0.1452 -0.8559
  348SOL    HW3 1391   1.721   2.019   0.834  2.1499  0.8655 -1.4439
  348SOL    MW4 1392   1.780   1.960   0.859  0.4824 -0.1984  0.0357
  349SOL     OW 1393   2.038   2.011   0.733  0.1923  0.4041 -0.1698
  349SOL    HW2 1394   2.049   2.103   0.755  1.2160  0.4226 -0.7359
  349SOL    HW3 1395   1.962   1.983   0.783  2.0379  0.5993  2.8521
  349SOL    MW4 1396   2.029   2.020   0.742  0.5709  0.4323  0.1542
  350SOL     OW 1397   2.070   2.283   0.809 -0.4067  0.1135 -0.3452
  350SOL    HW2 1398   2.073   2.290   0.904 -0.2127 -2.2867 -0.1435
  350SOL    HW3 1399   1.995   2.336   0.783 -0.8364  0.2832  1.2023
  350SOL    MW4 1400   2.060   2.291   0.818 -0.4378 -0.1808 -0.1144
  351SOL     OW 1401   1.879   2.454   0.738  0.3474  0.2230  0.0039
  351SOL    HW2 1402   1.789   2.446   0.770  0.9285  1.3039  2.0789
  351SOL    HW3 1403   1.871   2.456   0.643 -1.8141  0.2201  0.1525
  351SOL    MW4 1404   1.866   2.453   0.730  0.1389  0.3652  0.2973
  352SOL     OW 1405   1.799   2.732   0.800  0.4563  0.0081 -0.0756
  352SOL    HW2 1406   1.826   2.640   0.796  1.3881  0.2248  0.8863
  352SOL    HW3 1407   1.703   2.729   0.791  0.5562 -0.9806 -0.9005
  352SOL    MW4 1408   1.790   2.720   0.799  0.5925 -0.0938 -0.0576
  353SOL     OW 1409   2.025   2.855   0.717 -0.3673  0.0544  0.1059
  353SOL    HW2 1410   2.096   2.798   0.746 -1.3600 -1.4531 -0.3619
  353SOL    HW3 1411   1.946   2.817   0.758 -0.7023  2.6518  1.9567
  353SOL    MW4 1412   2.024   2.842   0.726 -0.5425  0.1982  0.2884
  354SOL     OW 1413   2.016   3.068   0.910  0.2455 -0.3562  0.6252
  354SOL    HW2 1414   1.928   3.101   0.891  0.5074  0.1106  0.2054
  354SOL    HW3 1415   2.027   2.993   0.853 -0.3838 -1.2287  1.6414
  354SOL    MW4 1416   2.006   3.063   0.900  0.1970 -0.4097  0.7039
  355SOL     OW 1417   1.807   3.227   0.891  0.0738  0.5333  0.4846
  355SOL    HW2 1418   1.725   3.178   0.886 -0.1343  0.8047  1.2588
  355SOL    HW3 1419   1.831   3.242   0.799  0.0769 -0.9034  0.2314
  355SOL    MW4 1420   1.799   3.222   0.878  0.0468  0.3796  0.5534
  356SOL     OW 1421   1.884   3.476   0.984 -0.6290  0.6365  0.1278
  356SOL    HW2 1422   1.866   3.484   1.078  0.2516  0.8938  0.2774
  356SOL    HW3 1423   1.855   3.388   0.961 -0.4917  0.4361  0.7228
  356SOL    MW4 1424   1.878   3.466   0.993 -0.4947  0.6440  0.2260
  357SOL     OW 1425   1.857   3.639   0.779 -0.0508 -0.2533  0.0867
  357SOL    HW2 1426   1.883   3.727   0.808  1.3191 -0.9831  1.1235
  357SOL    HW3 1427   1.869   3.584   0.856 -4.4972 -0.7323  0.5947
  357SOL    MW4 1428   1.862   3.643   0.793 -0.4567 -0.4128  0.2905
  358SOL     OW 1429   1.963   3.899   0.834  0.4221  0.0198  0.1050
  358SOL    HW2 1430   1.977   3.915   0.927 -1.0133 -0.5341  0.4313
  358SOL    HW3 1431   1.880   3.944   0.815 -0.2625 -1.4729 -0.4693
  358SOL    MW4 1432   1.954   3.907   0.844  0.1424 -0.2502  0.0723
  359SOL     OW 1433   1.710   3.987   0.801  0.4418 -0.2647 -0.7759
  359SOL    HW2 1434   1.645   3.925   0.833  0.8712 -0.9665 -1.2444
  359SOL    HW3 1435   1.686   4.001   0.709 -0.0829  0.8250 -0.4834
  359SOL    MW4 1436   1.698   3.981   0.793  0.4292 -0.2136 -0.7992
  360SOL     OW 1437   1.754   4.246   0.879 -0.4247 -0.5539 -0.0491
  360SOL    HW2 1438   1.764   4.266   0.972 -0.8226 -0.2740 -0.0635
  360SOL    HW3 1439   1.729   4.153   0.876 -1.5830 -0.2544  0.1912
  360SOL    MW4 1440   1.752   4.236   0.891 -0.6301 -0.4774 -0.0193
  361SOL     OW 1441   1.985   4.367   0.773  0.6359 -0.3875 -0.2177
  361SOL    HW2 1442   1.905   4.330   0.811  0.4513 -0.0902 -0.3162
  361SOL    HW3 1443   1.973   4.357   0.679 -0.4125  1.9456 -0.3638
  361SOL    MW4 1444   1.973   4.361   0.766  0.4732 -0.0405 -0.2500
  362SOL     OW 1445   2.682   0.097   0.771  0.7827 -0.0332  0.3623
  362SOL    HW2 1446   2.594   0.074   0.799  1.2238 -1.9496  0.2279
  362SOL    HW3 1447   2.687   0.192   0.782 -0.6884 -0.1415  2.1101
  362SOL    MW4 1448   2.671   0.106   0.776  0.6468 -0.3004  0.5752
  363SOL     OW 1449   2.439   4.653   0.836  0.1049 -0.5606 -0.1962
  363SOL    HW2 1450   2.442   4.651   0.931  0.6132  0.8791 -0.1676
  363SOL    HW3 1451   2.433   4.562   0.810  1.4469 -1.0515  1.1682
  363SOL    MW4 1452   2.438   4.641   0.845  0.3490 -0.4354 -0.0124
  364SOL     OW 1453   2.208   0.372   0.852 -0.1629 -0.0975  0.3964
  364SOL    HW2 1454   2.280   0.414   0.805 -1.0122  0.4357 -0.4431
  364SOL    HW3 1455   2.204   0.283   0.815 -0.9584  0.3843 -0.6953
  364SOL    MW4 1456   2.217   0.366   0.841 -0.3799  0.0364  0.1416
  365SOL     OW 1457   2.421   0.492   0.715  0.2704 -0.2151  0.1137
  365SOL    HW2 1458   2.496   0.444   0.751  1.4917  0.2434 -1.7025
  365SOL    HW3 1459   2.425   0.474   0.621 -0.7808  1.3700 -0.2513
  365SOL    MW4 1460   2.432   0.483   0.707  0.2928  0.0546 -0.1741
  366SOL     OW 1461   2.450   0.757   0.809  0.0684 -0.4914 -0.0539
  366SOL    HW2 1462   2.503   0.795   0.739  0.4745  0.4927  0.7743
  366SOL    HW3 1463   2.424   0.671   0.776  1.8657 -0.8352 -0.6246
  366SOL    MW4 1464   2.454   0.751   0.795  0.3591 -0.4069 -0.0200
  367SOL     OW 1465   2.183   0.828   0.860  0.3779 -0.0785  0.5594
  367SOL    HW2 1466   2.264   0.777   0.861  0.5667  0.2311  1.6689
  367SOL    HW3 1467   2.136   0.796   0.783  0.6629 -1.6883  1.0216
  367SOL    MW4 1468   2.187   0.817   0.850  0.4404 -0.2500  0.7667
  368SOL     OW 1469   2.279   1.131   0.825 -0.3079 -0.0399 -0.1925
  368SOL    HW2 1470   2.263   1.154   0.917 -0.9733 -0.6976 -0.1315
  368SOL    HW3 1471   2.261   1.037   0.822  1.1980 -0.3221 -0.6698
  368SOL    MW4 1472   2.274   1.121   0.837 -0.1970 -0.1639 -0.2474
  369SOL     OW 1473   2.537   1.257   0.736 -0.6569  0.2717  0.0641
  369SOL    HW2 1474   2.451   1.216   0.742 -1.2581  1.3755 -0.8228
  369SOL    HW3 1475   2.567   1.238   0.647  0.0184 -0.1118  0.3695
  369SOL    MW4 1476   2.529   1.249   0.725 -0.6471  0.3668 -0.0126
  370SOL     OW 1477   2.506   1.526   0.831  0.2423  0.2085  0.0153
  370SOL    HW2 1478   2.585   1.569   0.797 -0.4675  1.3934 -0.1668
  370SOL    HW3 1479   2.521   1.433   0.815  1.7769  0.3874  0.3475
  370SOL    MW4 1480   2.519   1.520   0.824  0.3511  0.3885  0.0351
  371SOL     OW 1481   2.253   1.639   0.762  0.2058  0.0431  0.1311
  371SOL    HW2 1482   2.344   1.618   0.784 -0.0816 -0.8721  0.4642
  371SOL    HW3 1483   2.248   1.625   0.667  0.4241  0.1508  0.1028
  371SOL    MW4 1484   2.265   1.635   0.752  0.1967 -0.0634  0.1713
  372SOL     OW 1485   2.250   1.905   0.887 -0.1615  0.0831  0.2301
  372SOL    HW2 1486   2.242   1.827   0.832  1.9814  0.7107 -1.0408
  372SOL    HW3 1487   2.172   1.957   0.865  0.2846 -0.0051 -1.7234
  372SOL    MW4 1488   2.239   1.902   0.877  0.1801  0.1543 -0.1954
  373SOL     OW 1489   2.495   1.997   0.800 -0.2924  0.2646 -0.0313
  373SOL    HW2 1490   2.415   1.968   0.843 -1.3461  2.6544 -0.3137
  373SOL    HW3 1491   2.479   1.983   0.707  0.4241 -1.1299  0.0397
  373SOL    MW4 1492   2.482   1.991   0.794 -0.3369  0.3959 -0.0592
  374SOL     OW 1493   2.532   2.278   0.807  0.0241 -0.3566 -0.8387
  374SOL    HW2 1494   2.611   2.299   0.757  0.2264  0.1173 -0.3196
  374SOL    HW3 1495   2.522   2.183   0.797  1.5188 -0.6601  0.3601
  374SOL    MW4 1496   2.541   2.268   0.799  0.2480 -0.3341 -0.6120
  375SOL     OW 1497   2.293   2.451   0.761  0.0078 -0.0992 -0.2319
  375SOL    HW2 1498   2.374   2.403   0.778  0.1695  0.9248  2.1687
  375SOL    HW3 1499   2.224   2.386   0.774  0.3796 -0.6496 -0.9612
  375SOL    MW4 1500   2.295   2.436   0.765  0.0782 -0.0367 -0.0114
  376SOL     OW 1501   2.247   2.699   0.825 -0.3954  0.8288 -0.1760
  376SOL    HW2 1502   2.260   2.711   0.920  0.9696  1.0979 -0.3902
  376SOL    HW3 1503   2.265   2.606   0.810  2.5915  1.4314 -0.6520
  376SOL    MW4 1504   2.251   2.689   0.836  0.1788  0.9438 -0.2671
  377SOL     OW 1505   2.475   2.878   0.764  0.3244  0.1554  0.6658
  377SOL    HW2 1506   2.546   2.822   0.794  0.3534 -1.8357 -2.8682
  377SOL    HW3 1507   2.396   2.824   0.775 -0.0663  0.6483  0.3035
  377SOL    MW4 1508   2.474   2.864   0.770  0.2767 -0.0423  0.1517
  378SOL     OW 1509   2.446   3.127   0.914 -0.2643 -0.4186 -0.2966
  378SOL    HW2 1510   2.453   3.105   1.007  1.3387  0.4861 -0.1823
  378SOL    HW3 1511   2.460   3.044   0.869  1.0716 -0.4933  0.2354
  378SOL    MW4 1512   2.449   3.113   0.920  0.1234 -0.3091 -0.2113
  379SOL     OW 1513   2.221   3.252   0.810 -0.1182  0.2008 -0.0966
  379SOL    HW2 1514   2.158   3.195   0.854  0.7611 -1.0431 -0.4314
  379SOL    HW3 1515   2.304   3.233   0.852  0.4500  0.1629 -1.2196
  379SOL    MW4 1516   2.224   3.242   0.822  0.0728  0.0317 -0.2889
  380SOL     OW 1517   2.138   3.499   0.866 -0.2550 -0.2204  0.5206
  380SOL    HW2 1518   2.173   3.412   0.844  0.8720 -0.0647  1.5913
  380SOL    HW3 1519   2.048   3.483   0.892  0.9519 -1.6239  4.1688
  380SOL    MW4 1520   2.131   3.485   0.866  0.0529 -0.3850  1.1432
  381SOL     OW 1521   2.259   3.658   0.658 -0.2259 -0.1560  0.1640
  381SOL    HW2 1522   2.232   3.591   0.720 -0.1620 -0.0601  0.2948
  381SOL    HW3 1523   2.245   3.741   0.704 -0.5436 -0.0674 -0.0866
  381SOL    MW4 1524   2.254   3.660   0.672 -0.2594 -0.1316  0.1482
  382SOL     OW 1525   2.487   3.899   0.873 -0.1691 -0.0513 -0.4776
  382SOL    HW2 1526   2.402   3.911   0.830 -0.5307 -1.0679 -0.0657
  382SOL    HW3 1527   2.520   3.817   0.838 -1.0075 -1.5152  2.0178
  382SOL    MW4 1528   2.480   3.890   0.863 -0.3274 -0.3786 -0.0940
  383SOL     OW 1529   2.434   4.383   0.734  0.2295  0.1996 -0.1779
  383SOL    HW2 1530   2.499   4.349   0.795 -0.9093  1.3647  1.7176
  383SOL    HW3 1531   2.359   4.325   0.744 -0.7916  1.7178  1.2341
  383SOL    MW4 1532   2.433   4.371   0.743 -0.0554  0.5536  0.2585
  384SOL     OW 1533   2.237   4.193   0.797  0.6437 -0.2689 -0.3213
  384SOL    HW2 1534   2.233   4.102   0.767 -1.2521 -0.2720 -0.0871
  384SOL    HW3 1535   2.149   4.227   0.783  1.0720  1.2442  0.5524
  384SOL    MW4 1536   2.225   4.186   0.791  0.4501 -0.0697 -0.1751
  385SOL     OW 1537   2.636   4.216   0.403 -0.0364  0.1453  0.0131
  385SOL    HW2 1538   2.665   4.225   0.312  0.7474  0.9767  0.3364
  385SOL    HW3 1539   2.698   4.270   0.453 -1.1789  0.6505  0.8990
  385SOL    MW4 1540   2.648   4.224   0.398 -0.0837  0.3217  0.1727
  386SOL     OW 1541   2.901   4.665   0.906 -0.0345 -0.0285  0.2187
  386SOL    HW2 1542   2.891   4.576   0.872 -0.1273 -0.1550  0.5771
  386SOL    HW3 1543   2.830   4.715   0.863  0.1190 -0.0877 -0.1067
  386SOL    MW4 1544   2.890   4.660   0.896 -0.0265 -0.0530  0.2230
  387SOL     OW 1545   2.354   4.152   0.378 -0.4218  0.2520 -0.0360
  387SOL    HW2 1546   2.329   4.205   0.302 -0.9409  0.7402  0.4719
  387SOL    HW3 1547   2.424   4.203   0.420  0.0060 -0.1164 -0.2994
  387SOL    MW4 1548   2.360   4.166   0.373 -0.4338  0.2678 -0.0037
  388SOL     OW 1549   2.652   0.379   0.869 -0.0097 -0.2498  0.2569
  388SOL    HW2 1550   2.667   0.380   0.963  0.6040  2.8187  0.1778
  388SOL    HW3 1551   2.734   0.410   0.831 -0.8307  0.2081 -1.1820
  388SOL    MW4 1552   2.665   0.383   0.876 -0.0370  0.2154  0.0566
  389SOL     OW 1553   2.898   0.459   0.765  0.4826  0.2036 -0.2780
  389SOL    HW2 1554   2.974   0.418   0.806  0.5837 -0.1040 -0.7736
  389SOL    HW3 1555   2.919   0.462   0.672  0.1593  0.7018 -0.3394
  389SOL    MW4 1556   2.911   0.454   0.758  0.4533  0.2287 -0.3515
  390SOL     OW 1557   2.957   0.745   0.850  0.1950  0.1868  0.0823
  390SOL    HW2 1558   2.938   0.736   0.944  0.9275  0.6856  0.2826
  390SOL    HW3 1559   2.934   0.660   0.813  1.6492 -0.6378  1.0186
  390SOL    MW4 1560   2.951   0.733   0.858  0.4835  0.1438  0.2323
  391SOL     OW 1561   2.568   0.830   0.554 -0.3747  0.5214  0.1730
  391SOL    HW2 1562   2.656   0.855   0.582 -0.3203  1.1081 -0.5018
  391SOL    HW3 1563   2.582   0.763   0.488 -0.4393  0.5314  0.1493
  391SOL    MW4 1564   2.582   0.825   0.549 -0.3760  0.6001  0.0808
  392SOL     OW 1565   2.728   1.101   0.875 -0.1057  0.2369  0.4482
  392SOL    HW2 1566   2.744   1.027   0.817 -0.1433  0.2607  0.4072
  392SOL    HW3 1567   2.651   1.145   0.838 -1.2711 -0.8188  1.5871
  392SOL    MW4 1568   2.720   1.097   0.863 -0.2645  0.1007  0.5931
  393SOL     OW 1569   2.899   1.269   0.751  0.1803 -0.2765 -0.0026
  393SOL    HW2 1570   2.982   1.222   0.763  0.0854 -0.6716 -0.8607
  393SOL    HW3 1571   2.838   1.223   0.809  0.1096 -1.1721 -0.7780
  393SOL    MW4 1572   2.902   1.256   0.760  0.1584 -0.4468 -0.2181
  394SOL     OW 1573   2.945   1.513   0.822 -0.0648 -0.4128  0.2269
  394SOL    HW2 1574   3.021   1.537   0.769  1.4600 -1.1229  2.0577
  394SOL    HW3 1575   2.918   1.427   0.789  0.9032 -0.8679  0.6059
  394SOL    MW4 1576   2.951   1.505   0.811  0.2641 -0.5665  0.5184
  395SOL     OW 1577   2.727   1.678   0.724  0.0026 -0.0058  0.2091
  395SOL    HW2 1578   2.728   1.756   0.779 -1.5098 -0.1871  0.5044
  395SOL    HW3 1579   2.797   1.623   0.760 -0.8820 -0.0636  1.8764
  395SOL    MW4 1580   2.736   1.681   0.736 -0.3137 -0.0374  0.4680
  396SOL     OW 1581   2.734   1.891   0.890  0.0094  0.4855 -0.0772
  396SOL    HW2 1582   2.732   1.900   0.985  1.0860  0.9163 -0.0895
  396SOL    HW3 1583   2.650   1.928   0.861 -0.2956  0.4067  0.6993
  396SOL    MW4 1584   2.723   1.897   0.898  0.1112  0.5319  0.0236
  397SOL     OW 1585   2.944   2.030   0.757 -0.0643 -0.3512  0.1225
  397SOL    HW2 1586   2.950   2.123   0.778  2.1520 -0.5241  0.3733
  397SOL    HW3 1587   2.874   1.997   0.813  0.3759  0.7976  1.3635
  397SOL    MW4 1588   2.936   2.038   0.767  0.2862 -0.2225  0.3193
  398SOL     OW 1589   2.985   2.307   0.819  0.0427 -0.1548  0.7950
  398SOL    HW2 1590   2.956   2.304   0.910 -0.1216  0.6569  0.7664
  398SOL    HW3 1591   2.911   2.344   0.771  0.2051 -0.3883  0.3558
  398SOL    MW4 1592   2.971   2.311   0.824  0.0425 -0.0785  0.7333
  399SOL     OW 1593   2.752   2.347   0.643  0.3575  0.3023  0.3106
  399SOL    HW2 1594   2.760   2.314   0.554 -2.2437  0.1238  0.1254
  399SOL    HW3 1595   2.733   2.441   0.632  2.3239  0.7752  0.7404
  399SOL    MW4 1596   2.751   2.355   0.630  0.2738  0.3411  0.3429
  400SOL     OW 1597   2.683   2.722   0.832 -0.0277 -0.1018 -0.7585
  400SOL    HW2 1598   2.669   2.694   0.922 -1.8139  0.1030 -0.9482
  400SOL    HW3 1599   2.771   2.759   0.831 -0.1979  0.3699  1.0195
  400SOL    MW4 1600   2.693   2.723   0.843 -0.2858 -0.0125 -0.5489
  401SOL     OW 1601   2.182   3.657   0.386 -0.1300  0.5570 -0.0920
  401SOL    HW2 1602   2.176   3.652   0.481 -1.5264 -0.7175 -0.2171
  401SOL    HW3 1603   2.156   3.569   0.356  0.4037  0.9080 -1.6387
  401SOL    MW4 1604   2.178   3.644   0.395 -0.2438  0.4351 -0.3126
  402SOL     OW 1605   2.955   3.057   0.871  0.4852  0.0336 -0.2365
  402SOL    HW2 1606   2.866   3.091   0.855  0.9654  1.0953 -0.7018
  402SOL    HW3 1607   2.960   2.977   0.819 -0.5321 -0.5585  0.5604
  402SOL    MW4 1608   2.944   3.051   0.862  0.4143  0.0956 -0.1928
  403SOL     OW 1609   2.711   3.172   0.843 -0.3609  0.6867 -0.2236
  403SOL    HW2 1610   2.729   3.262   0.869 -0.9497  0.3742  1.3169
  403SOL    HW3 1611   2.620   3.157   0.869 -0.3661 -0.2558 -0.7490
  403SOL    MW4 1612   2.702   3.182   0.849 -0.4393  0.5211 -0.0896
  404SOL     OW 1613   2.740   3.434   0.925  0.4171  0.4918 -0.0376
  404SOL    HW2 1614   2.746   3.444   1.020  1.4942  1.8432 -0.2347
  404SOL    HW3 1615   2.805   3.495   0.890  1.3356 -1.3375 -1.6034
  404SOL    MW4 1616   2.749   3.443   0.933  0.6804  0.4288 -0.2702
  405SOL     OW 1617   2.938   3.585   0.851 -0.0429 -0.2613  0.1743
  405SOL    HW2 1618   2.916   3.678   0.856 -0.2448 -0.2683 -0.6567
  405SOL    HW3 1619   2.967   3.572   0.761 -0.1273 -1.0295  0.2584
  405SOL    MW4 1620   2.939   3.596   0.840 -0.0807 -0.3636  0.0757
  406SOL     OW 1621   2.909   3.863   0.885 -0.1843 -0.4835 -0.3690
  406SOL    HW2 1622   2.920   3.887   0.977 -0.6063  0.4266 -0.5494
  406SOL    HW3 1623   2.833   3.914   0.856 -1.6123 -2.6476 -0.5586
  406SOL    MW4 1624   2.900   3.873   0.893 -0.4284 -0.6489 -0.4178
  407SOL     OW 1625   2.729   4.045   0.790 -0.1732 -0.1170  0.0652
  407SOL    HW2 1626   2.643   4.007   0.811 -0.0836 -1.0242 -1.1459
  407SOL    HW3 1627   2.735   4.039   0.695  0.7361  1.0570  0.0385
  407SOL    MW4 1628   2.718   4.039   0.780 -0.0414 -0.0818 -0.0981
  408SOL     OW 1629   2.639   4.287   0.916  0.0050 -0.0826 -0.3486
  408SOL    HW2 1630   2.666   4.284   1.007  1.3716  0.1785 -0.7361
  408SOL    HW3 1631   2.660   4.200   0.882 -1.3079 -0.4670 -0.1970
  408SOL    MW4 1632   2.645   4.275   0.923  0.0121 -0.0989 -0.3798
  409SOL     OW 1633   2.864   4.413   0.789  0.0247  0.2015 -0.1959
  409SOL    HW2 1634   2.937   4.357   0.816 -0.3343  1.3243  3.2575
  409SOL    HW3 1635   2.789   4.383   0.840 -1.2375  1.0261 -1.5095
  409SOL    MW4 1636   2.864   4.402   0.799 -0.1892  0.4584  0.0864
  410SOL     OW 1637   3.372   4.620   0.787  0.1683 -0.0964 -0.3456
  410SOL    HW2 1638   3.390   4.623   0.881  0.7442 -2.7838 -0.3283
  410SOL    HW3 1639   3.287   4.662   0.778  1.4415  2.8826  0.9778
  410SOL    MW4 1640   3.363   4.626   0.798  0.4123 -0.0579 -0.1687
  411SOL     OW 1641   3.128   0.078   0.772 -0.0575 -0.4735 -0.6339
  411SOL    HW2 1642   3.110   0.170   0.789  1.8321 -0.1323 -0.2871
  411SOL    HW3 1643   3.052   0.031   0.805  0.5336  0.7046  2.5742
  411SOL    MW4 1644   3.116   0.084   0.779  0.2698 -0.2730 -0.1649
  412SOL     OW 1645   3.119   0.357   0.868  0.5501 -0.3184 -0.3122
  412SOL    HW2 1646   3.118   0.373   0.962 -0.2660 -0.3089 -0.3178
  412SOL    HW3 1647   3.185   0.417   0.834 -0.6888  1.2654 -0.0081
  412SOL    MW4 1648   3.127   0.367   0.876  0.2790 -0.1082 -0.2728
  413SOL     OW 1649   3.323   0.511   0.741 -0.4888  0.1741 -0.1523
  413SOL    HW2 1650   3.401   0.457   0.750  0.5950  1.5092 -1.2949
  413SOL    HW3 1651   3.306   0.513   0.647 -1.5719  0.3488  0.0377
  413SOL    MW4 1652   3.331   0.504   0.730 -0.4887  0.3733 -0.2780
  414SOL     OW 1653   3.413   0.740   0.872 -0.1403 -0.3142  0.9425
  414SOL    HW2 1654   3.350   0.807   0.844  0.4999  0.0678  0.4024
  414SOL    HW3 1655   3.380   0.659   0.834 -0.1949 -0.0838  0.4964
  414SOL    MW4 1656   3.400   0.738   0.863 -0.0630 -0.2334  0.8123
  415SOL     OW 1657   3.194   0.872   0.788 -0.3369 -0.3338 -0.1541
  415SOL    HW2 1658   3.165   0.960   0.814  0.6160 -0.7842  2.6125
  415SOL    HW3 1659   3.115   0.818   0.792 -0.2230 -0.3930  1.9797
  415SOL    MW4 1660   3.180   0.877   0.792 -0.1962 -0.4010  0.4924
  416SOL     OW 1661   3.141   1.145   0.820 -0.0667  0.0690  0.0909
  416SOL    HW2 1662   3.135   1.150   0.915  1.6423 -1.9428  0.3494
  416SOL    HW3 1663   3.227   1.181   0.799 -0.3459  0.2959 -0.6748
  416SOL    MW4 1664   3.151   1.150   0.830  0.1219 -0.1665  0.0240
  417SOL     OW 1665   3.370   1.238   0.672  0.0720 -0.7037  0.3068
  417SOL    HW2 1666   3.374   1.322   0.718  0.6193  0.4770 -1.8405
  417SOL    HW3 1667   3.442   1.187   0.708  0.4390  0.1618  0.8010
  417SOL    MW4 1668   3.380   1.242   0.683  0.1926 -0.4337  0.0887
  418SOL     OW 1669   3.394   1.467   0.833  0.2400  0.3186 -0.1161
  418SOL    HW2 1670   3.388   1.454   0.928  1.4187 -1.2659 -0.2466
  418SOL    HW3 1671   3.472   1.521   0.821  1.4536 -1.4325 -0.3242
  418SOL    MW4 1672   3.403   1.472   0.844  0.5557 -0.1215 -0.1608
  419SOL     OW 1673   3.173   1.641   0.733 -0.0544  0.0383 -0.3806
  419SOL    HW2 1674   3.183   1.724   0.780  0.3444  0.3562 -1.0217
  419SOL    HW3 1675   3.249   1.589   0.759 -0.4636 -0.2355  0.2544
  419SOL    MW4 1676   3.184   1.645   0.742 -0.0558  0.0441 -0.3814
  420SOL     OW 1677   3.147   1.885   0.869 -0.4805 -0.6020 -0.3265
  420SOL    HW2 1678   3.145   1.907   0.963  0.3921 -0.2402 -0.3821
  420SOL    HW3 1679   3.071   1.930   0.832 -0.2665  0.0742  0.0389
  420SOL    MW4 1680   3.137   1.894   0.877 -0.3371 -0.4651 -0.2856
  421SOL     OW 1681   3.386   2.052   0.739  0.0476 -0.2736  0.8265
  421SOL    HW2 1682   3.371   2.145   0.756  1.6366 -0.1778  1.7329
  421SOL    HW3 1683   3.317   2.008   0.788 -0.8184  0.4222  0.2549
  421SOL    MW4 1684   3.375   2.059   0.748  0.1430 -0.1691  0.8707
  422SOL     OW 1685   3.381   2.322   0.777 -0.4134  0.0400  0.1206
  422SOL    HW2 1686   3.382   2.330   0.872  0.5789 -0.0083  0.1127
  422SOL    HW3 1687   3.466   2.354   0.749 -1.2574  1.4747 -0.8683
  422SOL    MW4 1688   3.392   2.327   0.786 -0.3938  0.2229 -0.0109
  423SOL     OW 1689   3.161   2.443   0.672 -0.1855  0.5127 -0.3672
  423SOL    HW2 1690   3.232   2.380   0.682 -1.6207 -1.1025 -0.2491
  423SOL    HW3 1691   3.087   2.404   0.718 -1.1992  2.1271 -0.5782
  423SOL    MW4 1692   3.161   2.430   0.680 -0.5086  0.5126 -0.3794
  424SOL     OW 1693   3.171   2.687   0.821  0.0824  0.1424 -0.3119
  424SOL    HW2 1694   3.174   2.606   0.770  0.9928 -0.1070  0.1265
  424SOL    HW3 1695   3.248   2.736   0.792 -0.3239  0.7438 -0.3889
  424SOL    MW4 1696   3.181   2.683   0.811  0.1489  0.1889 -0.2642
  425SOL     OW 1697   3.363   2.844   0.735 -0.4030  1.1575  0.5889
  425SOL    HW2 1698   3.336   2.833   0.644 -1.7454  3.5853  0.6432
  425SOL    HW3 1699   3.444   2.794   0.742 -0.5061  0.5632 -1.8119
  425SOL    MW4 1700   3.370   2.836   0.724 -0.5937  1.3994  0.2793
  426SOL     OW 1701   3.370   3.097   0.867 -0.5884 -0.2734 -0.3963
  426SOL    HW2 1702   3.371   3.092   0.963 -1.9875  1.5386 -0.2728
  426SOL    HW3 1703   3.363   3.005   0.839  2.0681 -1.0051  1.1605
  426SOL    MW4 1704   3.369   3.084   0.876 -0.4225 -0.1309 -0.1746
  427SOL     OW 1705   3.120   3.246   0.760  0.1393 -0.4229 -0.4538
  427SOL    HW2 1706   3.206   3.206   0.767  0.1229 -0.1680  1.5650
  427SOL    HW3 1707   3.059   3.180   0.793 -0.3699 -0.3514 -1.2273
  427SOL    MW4 1708   3.123   3.232   0.766  0.0700 -0.3798 -0.2895
  428SOL     OW 1709   3.167   3.472   0.922 -0.1157  0.1657  0.3548
  428SOL    HW2 1710   3.157   3.389   0.877  0.2462 -0.5338  1.5355
  428SOL    HW3 1711   3.092   3.524   0.895  0.1378 -0.2074 -1.0943
  428SOL    MW4 1712   3.156   3.468   0.912 -0.0345  0.0242  0.3194
  429SOL     OW 1713   3.379   3.512   0.731  0.1429 -0.0743  0.3654
  429SOL    HW2 1714   3.397   3.604   0.752 -1.4481  0.2747  0.2166
  429SOL    HW3 1715   3.310   3.487   0.793 -2.2411 -0.0059 -2.1865
  429SOL    MW4 1716   3.372   3.521   0.742 -0.3816 -0.0193  0.0091
  430SOL     OW 1717   3.337   3.822   0.743  0.0209 -0.3025 -0.0376
  430SOL    HW2 1718   3.333   3.837   0.838 -1.4905  0.1439 -0.1517
  430SOL    HW3 1719   3.401   3.886   0.712 -0.7014  0.7081  0.4871
  430SOL    MW4 1720   3.345   3.832   0.752 -0.2738 -0.1102  0.0166
  431SOL     OW 1721   3.111   4.007   0.764 -0.5835 -0.2384 -0.2017
  431SOL    HW2 1722   3.183   3.946   0.749 -0.2032  0.3341 -0.7483
  431SOL    HW3 1723   3.043   3.955   0.806 -0.3428 -1.0903 -0.8577
  431SOL    MW4 1724   3.111   3.992   0.768 -0.5016 -0.2753 -0.3604
  432SOL     OW 1725   3.091   4.270   0.851 -0.3613 -0.1223  0.0850
  432SOL    HW2 1726   3.151   4.320   0.796  0.0959  0.4740  1.1096
  432SOL    HW3 1727   3.103   4.179   0.822  1.6342 -0.1186  0.7958
  432SOL    MW4 1728   3.100   4.264   0.840 -0.0377 -0.0431  0.3139
  433SOL     OW 1729   3.286   4.377   0.680  0.1928 -0.1365 -0.1170
  433SOL    HW2 1730   3.316   4.465   0.702 -0.9969 -0.0069  1.0973
  433SOL    HW3 1731   3.246   4.387   0.594  0.3159  0.4510 -0.1140
  433SOL    MW4 1732   3.285   4.390   0.671  0.0521 -0.0419  0.0436
  434SOL     OW 1733   3.784   0.013   0.859 -0.1305  0.2401  0.1815
  434SOL    HW2 1734   3.875   0.038   0.843  0.1259  0.6509  2.2048
  434SOL    HW3 1735   3.732   0.077   0.810  0.6486  0.4881 -0.3212
  434SOL    MW4 1736   3.789   0.025   0.850  0.0062  0.3270  0.3821
  435SOL     OW 1737   3.592   0.156   0.694 -0.7412  0.2135  0.1434
  435SOL    HW2 1738   3.512   0.106   0.677  0.7592 -1.8677 -1.0648
  435SOL    HW3 1739   3.648   0.137   0.619  1.0531  1.2818  1.1898
  435SOL    MW4 1740   3.589   0.147   0.682 -0.3065  0.0798  0.1221
  436SOL     OW 1741   3.571   0.401   0.808 -0.3550 -0.4821 -0.5034
  436SOL    HW2 1742   3.579   0.379   0.901  0.6063  0.9876 -0.2168
  436SOL    HW3 1743   3.576   0.317   0.763 -0.0109 -1.1330  0.7263
  436SOL    MW4 1744   3.573   0.387   0.814 -0.1828 -0.3741 -0.3034
  437SOL     OW 1745   3.862   0.475   0.722 -0.2658 -0.1462 -0.5558
  437SOL    HW2 1746   3.858   0.566   0.753 -0.0515 -0.4459  0.3495
  437SOL    HW3 1747   3.775   0.440   0.740 -0.2525 -0.2132 -0.6217
  437SOL    MW4 1748   3.850   0.483   0.729 -0.2358 -0.1945 -0.4451
  438SOL     OW 1749   3.891   0.730   0.855 -0.1228 -0.0784 -0.1184
  438SOL    HW2 1750   3.881   0.736   0.950  0.5592  1.0157 -0.1105
  438SOL    HW3 1751   3.961   0.792   0.834 -1.0559  0.5280 -1.4730
  438SOL    MW4 1752   3.899   0.739   0.865 -0.1559  0.1460 -0.2961
  439SOL     OW 1753   3.913   0.991   0.496 -0.5579  0.0747  0.2921
  439SOL    HW2 1754   3.851   1.064   0.492 -1.2690 -0.4895  0.6892
  439SOL    HW3 1755   3.863   0.916   0.466  0.1994 -0.2347 -0.2090
  439SOL    MW4 1756   3.898   0.991   0.492 -0.5518 -0.0406  0.2784
  440SOL     OW 1757   3.647   0.822   0.721  0.1702 -0.3454  0.2944
  440SOL    HW2 1758   3.721   0.793   0.774  0.6860 -1.2196 -0.8870
  440SOL    HW3 1759   3.571   0.780   0.761  0.6597 -1.6758 -0.1497
  440SOL    MW4 1760   3.647   0.813   0.734  0.3028 -0.6362  0.0799
  441SOL     OW 1761   3.604   1.103   0.795 -0.1122  0.0216  0.0145
  441SOL    HW2 1762   3.582   1.105   0.888  1.4121  1.1496  0.3645
  441SOL    HW3 1763   3.622   1.011   0.777  0.2723 -0.1000  0.9942
  441SOL    MW4 1764   3.603   1.091   0.805  0.1396  0.1544  0.1900
  442SOL     OW 1765   3.821   1.536   0.775  0.3972  0.0462 -0.3486
  442SOL    HW2 1766   3.905   1.563   0.738  0.8716 -1.0465 -0.0856
  442SOL    HW3 1767   3.821   1.440   0.768 -0.8579  0.0399 -0.4158
  442SOL    MW4 1768   3.832   1.527   0.769  0.2942 -0.0988 -0.3228
  443SOL     OW 1769   3.578   1.692   0.733 -0.3505  0.7329  0.0294
  443SOL    HW2 1770   3.576   1.771   0.787 -0.3662  0.5940  0.2321
  443SOL    HW3 1771   3.665   1.656   0.746 -0.9703 -0.3080  1.4196
  443SOL    MW4 1772   3.589   1.698   0.742 -0.4343  0.5773  0.2396
  444SOL     OW 1773   3.628   1.975   0.852 -0.2292  0.0476  0.3233
  444SOL    HW2 1774   3.703   2.025   0.821 -0.2543 -0.2616 -0.2455
  444SOL    HW3 1775   3.552   2.019   0.813 -0.2036 -0.8580 -0.7735
  444SOL    MW4 1776   3.628   1.987   0.842 -0.2291 -0.1126  0.1035
  445SOL     OW 1777   3.849   2.080   0.714 -0.2574 -0.1375  0.1582
  445SOL    HW2 1778   3.919   2.037   0.763 -1.1937 -0.7875  0.9803
  445SOL    HW3 1779   3.854   2.043   0.626 -0.1724 -0.8911  0.4784
  445SOL    MW4 1780   3.859   2.069   0.709 -0.3697 -0.3227  0.3089
  446SOL     OW 1781   3.870   2.340   0.801 -0.1631 -0.4448 -0.2794
  446SOL    HW2 1782   3.870   2.333   0.896 -2.7369  1.8245 -0.0464
  446SOL    HW3 1783   3.865   2.250   0.770  0.4116 -1.1918  1.7198
  446SOL    MW4 1784   3.869   2.327   0.809 -0.4268 -0.2439  0.0151
  447SOL     OW 1785   3.638   2.457   0.699  0.5953 -0.0523 -0.8678
  447SOL    HW2 1786   3.627   2.549   0.724  0.5553 -0.3020  0.0378
  447SOL    HW3 1787   3.720   2.430   0.740  0.8624 -0.2824 -1.5463
  447SOL    MW4 1788   3.647   2.466   0.707  0.6252 -0.1156 -0.8378
  448SOL     OW 1789   3.621   2.714   0.781  0.2420  0.1720  0.0017
  448SOL    HW2 1790   3.615   2.715   0.876  1.8612 -1.0577  0.1384
  448SOL    HW3 1791   3.702   2.760   0.761 -0.7669  1.6273 -0.8807
  448SOL    MW4 1792   3.631   2.720   0.791  0.3225  0.2018 -0.0967
  449SOL     OW 1793   3.879   2.837   0.704 -0.1439 -0.2830 -0.3750
  449SOL    HW2 1794   3.859   2.861   0.614 -0.4389  0.0769 -0.2128
  449SOL    HW3 1795   3.879   2.919   0.752  1.2444 -0.3314 -0.2795
  449SOL    MW4 1796   3.876   2.851   0.699  0.0003 -0.2419 -0.3410
  450SOL     OW 1797   3.890   3.113   0.790 -0.0115  1.3311 -0.2123
  450SOL    HW2 1798   3.924   3.192   0.832  0.2217  1.3009 -0.3469
  450SOL    HW3 1799   3.796   3.130   0.781 -0.0546  1.3611  0.2683
  450SOL    MW4 1800   3.882   3.125   0.795  0.0136  1.3311 -0.1667
  451SOL     OW 1801   3.621   3.173   0.790 -0.5321 -0.5635 -0.3445
  451SOL    HW2 1802   3.544   3.133   0.830 -1.8401  0.4543 -1.7930
  451SOL    HW3 1803   3.613   3.153   0.697 -0.5544  1.9127 -0.9271
  451SOL    MW4 1804   3.610   3.165   0.783 -0.7076 -0.1025 -0.6125
  452SOL     OW 1805   3.614   3.437   0.850 -0.0894  0.1320 -0.6528
  452SOL    HW2 1806   3.618   3.343   0.836 -1.9951 -0.2126  0.8917
  452SOL    HW3 1807   3.539   3.466   0.797 -1.6070  0.2304  1.4944
  452SOL    MW4 1808   3.605   3.429   0.841 -0.5411  0.0995 -0.1657
  453SOL     OW 1809   3.739   3.697   0.815 -0.4550  0.6827 -0.5156
  453SOL    HW2 1810   3.823   3.678   0.775  1.1591  1.6421  2.2385
  453SOL    HW3 1811   3.697   3.611   0.826  0.2932  0.1766 -1.5986
  453SOL    MW4 1812   3.744   3.683   0.811 -0.1433  0.7425 -0.2951
  454SOL     OW 1813   3.725   3.878   0.617  0.0082  0.4101 -0.0545
  454SOL    HW2 1814   3.647   3.932   0.606  0.2779  0.8550  0.2560
  454SOL    HW3 1815   3.705   3.820   0.691  0.0055  0.5793  0.0759
  454SOL    MW4 1816   3.712   3.877   0.625  0.0434  0.4911  0.0037
  455SOL     OW 1817   3.476   4.023   0.635  0.4134  0.3616 -0.6769
  455SOL    HW2 1818   3.522   4.093   0.681 -1.4764  0.2628  1.4306
  455SOL    HW3 1819   3.471   4.054   0.544 -0.5337  3.0425  0.2501
  455SOL    MW4 1820   3.481   4.036   0.629  0.0391  0.7023 -0.2766
  456SOL     OW 1821   3.498   4.254   0.824  0.0100  0.7918 -0.0064
  456SOL    HW2 1822   3.576   4.309   0.812 -0.1566  0.5259 -2.6342
  456SOL    HW3 1823   3.429   4.299   0.776 -1.2182  0.4988  1.4618
  456SOL    MW4 1824   3.499   4.267   0.816 -0.1740  0.7181 -0.1594
  457SOL     OW 1825   3.718   4.417   0.782  0.1121 -0.2715 -0.5345
  457SOL    HW2 1826   3.713   4.424   0.686  0.3617 -0.8232 -0.5911
  457SOL    HW3 1827   3.739   4.506   0.811  0.2597 -0.1467 -1.0070
  457SOL    MW4 1828   3.720   4.430   0.773  0.1645 -0.3278 -0.6043
  458SOL     OW 1829   4.293   4.640   0.910 -0.3840  0.3928  0.3789
  458SOL    HW2 1830   4.337   4.724   0.899  0.1150  0.1176  0.2631
  458SOL    HW3 1831   4.282   4.631   1.004  1.4182 -0.3501  0.5448
  458SOL    MW4 1832   4.298   4.650   0.921 -0.0804  0.2585  0.3855
  459SOL     OW 1833   4.136   0.212   0.601  0.1768 -1.0201  0.1188
  459SOL    HW2 1834   4.117   0.277   0.669  0.2747 -0.6813 -0.1778
  459SOL    HW3 1835   4.098   0.248   0.522  0.9341 -0.9407 -0.2146
  459SOL    MW4 1836   4.129   0.226   0.600  0.2897 -0.9649  0.0357
  460SOL     OW 1837   4.091   0.393   0.826 -0.0782  0.6008  0.0866
  460SOL    HW2 1838   4.162   0.453   0.801 -0.1214  0.8611  0.5740
  460SOL    HW3 1839   4.012   0.432   0.789  0.0509  0.2460 -0.5620
  460SOL    MW4 1840   4.090   0.406   0.818 -0.0669  0.5883  0.0654
  461SOL     OW 1841   4.275   0.558   0.660  0.3824  0.2710  0.0899
  461SOL    HW2 1842   4.365   0.536   0.639  0.4887  0.0558  0.7932
  461SOL    HW3 1843   4.234   0.572   0.574  0.9072 -0.2976 -0.2579
  461SOL    MW4 1844   4.281   0.557   0.646  0.4657  0.1676  0.1368
  462SOL     OW 1845   4.244   0.797   0.842 -0.7476 -0.0121  0.4093
  462SOL    HW2 1846   4.192   0.873   0.817  0.5053  0.0429 -2.1744
  462SOL    HW3 1847   4.222   0.730   0.777 -0.8496 -1.4387  1.8772
  462SOL    MW4 1848   4.234   0.798   0.830 -0.5958 -0.1931  0.2621
  463SOL     OW 1849   4.049   0.946   0.733  0.5646 -0.2618  0.3154
  463SOL    HW2 1850   4.038   1.035   0.769  0.5115  0.4743 -1.4865
  463SOL    HW3 1851   3.996   0.945   0.654 -0.9379 -2.5252  1.3084
  463SOL    MW4 1852   4.041   0.958   0.727  0.3594 -0.4633  0.2087
  464SOL     OW 1853   4.042   1.196   0.822 -0.2568  0.4246  0.0190
  464SOL    HW2 1854   4.047   1.190   0.918 -0.5780 -1.7868 -0.0614
  464SOL    HW3 1855   3.952   1.225   0.805 -0.1742  0.8987  0.3952
  464SOL    MW4 1856   4.031   1.199   0.833 -0.2883  0.1954  0.0580
  465SOL     OW 1857   4.283   1.296   0.707  0.0578  0.4247 -0.3288
  465SOL    HW2 1858   4.203   1.254   0.738  0.0540  0.8806  0.2878
  465SOL    HW3 1859   4.351   1.230   0.720 -0.1666  0.1485 -0.5655
  465SOL    MW4 1860   4.282   1.282   0.713  0.0277  0.4484 -0.2787
  466SOL     OW 1861   0.039   1.710   0.726  0.0450 -0.0790 -0.2703
  466SOL    HW2 1862   0.116   1.671   0.768  0.3982 -0.0161 -0.8585
  466SOL    HW3 1863  -0.034   1.660   0.760  0.4760 -1.1114 -0.8289
  466SOL    MW4 1864   0.040   1.698   0.736  0.1484 -0.2069 -0.4216
  467SOL     OW 1865   4.061   1.684   0.711 -0.2875 -0.0496 -0.1004
  467SOL    HW2 1866   4.148   1.645   0.719  0.1435  0.9285  0.1317
  467SOL    HW3 1867   4.053   1.705   0.618 -0.1026  0.2483 -0.0495
  467SOL    MW4 1868   4.071   1.682   0.700 -0.2062  0.1187 -0.0631
  468SOL     OW 1869   4.068   1.945   0.816 -0.2132  0.0742 -0.2397
  468SOL    HW2 1870   4.146   1.992   0.785  2.0541 -0.9174  3.6055
  468SOL    HW3 1871   4.074   1.859   0.774 -1.2706  1.1759 -2.7781
  468SOL    MW4 1872   4.079   1.940   0.806 -0.0536  0.0887 -0.0673
  469SOL     OW 1873   4.286   2.083   0.714 -0.2709 -0.3699 -0.2250
  469SOL    HW2 1874   4.365   2.036   0.740 -0.4329 -0.1851  0.6289
  469SOL    HW3 1875   4.317   2.150   0.653  0.0924 -0.9500 -0.6795
  469SOL    MW4 1876   4.300   2.086   0.710 -0.2443 -0.4220 -0.1723
  470SOL     OW 1877   4.288   2.329   0.841  0.6526  0.5960  0.1359
  470SOL    HW2 1878   4.221   2.369   0.786  0.6160  2.7965  1.7217
  470SOL    HW3 1879   4.283   2.235   0.821 -1.6146  0.9512 -1.1172
  470SOL    MW4 1880   4.279   2.322   0.831  0.3487  0.9332  0.1798
  471SOL     OW 1881   4.172   3.100   0.384  0.7505  0.2575  0.5453
  471SOL    HW2 1882   4.168   3.191   0.357 -1.5969  0.3064  0.9039
  471SOL    HW3 1883   4.100   3.058   0.336  0.5245 -0.9723  1.9334
  471SOL    MW4 1884   4.162   3.106   0.374  0.4110  0.1017  0.7758
  472SOL     OW 1885   4.372   3.155   0.798 -0.6078  0.4204 -0.6439
  472SOL    HW2 1886   4.441   3.097   0.765 -0.4755  0.1611  0.0895
  472SOL    HW3 1887   4.291   3.116   0.765 -0.4767  0.1687 -0.6692
  472SOL    MW4 1888   4.370   3.142   0.789 -0.5730  0.3530 -0.5505
  473SOL     OW 1889   0.017   2.949   0.697  0.1948  0.0410  0.1195
  473SOL    HW2 1890  -0.060   2.911   0.655  0.5821  0.8004 -1.3097
  473SOL    HW3 1891   0.052   2.878   0.751  0.0517 -1.1786 -1.3393
  473SOL    MW4 1892   0.012   2.935   0.698  0.2270 -0.0197 -0.2615
  474SOL     OW 1893   3.551   3.359   0.266 -0.1772  0.0283 -0.4457
  474SOL    HW2 1894   3.511   3.396   0.344  2.0401 -0.5129  0.9946
  474SOL    HW3 1895   3.480   3.354   0.202 -2.3230 -0.6473  1.9165
  474SOL    MW4 1896   3.537   3.363   0.268 -0.1678 -0.1322  0.0560
  475SOL     OW 1897   4.193   3.350   0.294  0.0404 -0.1828  0.6305
  475SOL    HW2 1898   4.217   3.337   0.202 -1.8525 -0.5406  0.1651
  475SOL    HW3 1899   4.273   3.386   0.335  1.3139 -1.2842 -0.8373
  475SOL    MW4 1900   4.207   3.353   0.287 -0.0413 -0.3753  0.3755
  476SOL     OW 1901   4.132   3.086   0.681  0.0250  0.1630  0.0346
  476SOL    HW2 1902   4.043   3.107   0.708 -0.4811 -1.1777 -0.5627
  476SOL    HW3 1903   4.130   3.092   0.585  0.2857 -1.0046 -0.0465
  476SOL    MW4 1904   4.120   3.090   0.672 -0.0074 -0.1680 -0.0549
  477SOL     OW 1905   3.999   3.358   0.875  0.7577 -0.0235 -0.2222
  477SOL    HW2 1906   4.014   3.401   0.960 -0.4656  1.5036 -0.7539
  477SOL    HW3 1907   3.985   3.431   0.815 -0.7501 -1.1816 -1.2782
  477SOL    MW4 1908   3.999   3.374   0.879  0.3974  0.0252 -0.4317
  478SOL     OW 1909   4.206   3.789   0.709 -0.0760  0.1714  0.0400
  478SOL    HW2 1910   4.263   3.817   0.781 -0.4398  0.1313  0.3450
  478SOL    HW3 1911   4.140   3.858   0.703  0.7957  0.9077 -1.2149
  478SOL    MW4 1912   4.205   3.802   0.718 -0.0090  0.2632 -0.0854
  479SOL     OW 1913   3.969   4.223   0.872  0.0825 -0.1696  0.3999
  479SOL    HW2 1914   4.029   4.265   0.811 -1.5282  2.1900  0.3430
  479SOL    HW3 1915   3.886   4.270   0.860 -1.1766 -1.8751  2.0213
  479SOL    MW4 1916   3.966   4.235   0.862 -0.2961 -0.0833  0.6063
  480SOL     OW 1917   4.337   4.153   0.716  0.0282 -0.1252 -0.2589
  480SOL    HW2 1918   4.375   4.233   0.751 -0.3434 -0.2291  0.3949
  480SOL    HW3 1919   4.340   4.091   0.788  2.5021 -1.4580 -1.4537
  480SOL    MW4 1920   4.342   4.155   0.730  0.3056 -0.3148 -0.3303
  481SOL     OW 1921   4.114   4.303   0.651  0.2042  0.8453  0.0475
  481SOL    HW2 1922   4.188   4.253   0.684  1.2518 -0.2177 -3.6653
  481SOL    HW3 1923   4.153   4.379   0.609 -0.9705  1.5593  0.2348
  481SOL    MW4 1924   4.129   4.306   0.650  0.1875  0.7992 -0.4177
  482SOL     OW 1925   0.222   4.663   1.176 -0.2321  0.3386 -0.4263
  482SOL    HW2 1926   0.300   4.710   1.205  1.6133 -1.7622 -1.8473
  482SOL    HW3 1927   0.227   4.666   1.080 -2.2406  0.7222 -0.5373
  482SOL    MW4 1928   0.233   4.670   1.167 -0.2536  0.1120 -0.6284
  483SOL     OW 1929   4.460   0.107   1.266 -0.5524 -0.1146 -0.0004
  483SOL    HW2 1930   4.395   0.043   1.236 -0.4341 -0.2225 -0.0285
  483SOL    HW3 1931   4.544   0.063   1.252 -0.4487  0.2122 -0.4212
  483SOL    MW4 1932   4.463   0.092   1.260 -0.5231 -0.0857 -0.0597
  484SOL     OW 1933   0.001   0.336   1.113 -0.1184  0.4404 -0.1516
  484SOL    HW2 1934  -0.073   0.390   1.140 -0.1254  0.3376  0.0371
  484SOL    HW3 1935  -0.007   0.256   1.167  0.0721  0.3889 -0.2009
  484SOL    MW4 1936  -0.010   0.332   1.124 -0.0942  0.4201 -0.1332
  485SOL     OW 1937   0.206   0.485   1.213  0.5897 -0.0003 -0.2347
  485SOL    HW2 1938   0.193   0.571   1.174 -0.0713  0.5144  1.1205
  485SOL    HW3 1939   0.131   0.434   1.182  0.7337  0.0336 -0.6506
  485SOL    MW4 1940   0.194   0.489   1.203  0.5215  0.0721 -0.1108
  486SOL     OW 1941   0.211   0.761   1.135  0.7963  0.2347  0.1184
  486SOL    HW2 1942   0.288   0.791   1.182  0.1807  1.1450  0.5595
  486SOL    HW3 1943   0.139   0.811   1.172  0.2626  0.7374 -1.5649
  486SOL    MW4 1944   0.212   0.771   1.146  0.6447  0.4211 -0.0455
  487SOL     OW 1945   4.486   0.914   1.236  0.0199  0.3888 -0.5798
  487SOL    HW2 1946   4.492   0.906   1.331 -0.9866  1.0191 -0.4522
  487SOL    HW3 1947   4.410   0.861   1.212  0.3532  0.1256 -1.0400
  487SOL    MW4 1948   4.477   0.906   1.245 -0.0689  0.4373 -0.6237
  488SOL     OW 1949   4.481   1.133   1.073  0.4296 -0.0927 -0.0241
  488SOL    HW2 1950   4.403   1.172   1.111  1.4491  0.3117  1.6974
  488SOL    HW3 1951   4.491   1.049   1.117  1.1372 -0.0071 -0.0073
  488SOL    MW4 1952   4.472   1.127   1.084  0.6574 -0.0281  0.2053
  489SOL     OW 1953   0.186   1.298   1.191 -0.2079 -0.2700 -0.4497
  489SOL    HW2 1954   0.271   1.254   1.188  0.2250  0.4740  0.8746
  489SOL    HW3 1955   0.127   1.238   1.143  1.0250 -0.8097 -1.3281
  489SOL    MW4 1956   0.189   1.284   1.184  0.0119 -0.2431 -0.3909
  490SOL     OW 1957   0.262   1.549   1.118  0.0755 -0.4981  0.0140
  490SOL    HW2 1958   0.251   1.454   1.126 -0.3077 -0.5057 -0.6120
  490SOL    HW3 1959   0.249   1.567   1.025 -0.0425  0.1963  0.1641
  490SOL    MW4 1960   0.259   1.539   1.107  0.0093 -0.4075 -0.0488
  491SOL     OW 1961   0.025   1.653   1.232  0.0672  0.6236 -0.2238
  491SOL    HW2 1962   0.031   1.742   1.198  1.3865 -0.0469 -1.7767
  491SOL    HW3 1963   0.106   1.611   1.204 -0.3140 -0.9215  0.9404
  491SOL    MW4 1964   0.037   1.659   1.224  0.1910  0.3312 -0.2751
  492SOL     OW 1965   0.034   1.912   1.104  0.5938  0.4157 -0.0034
  492SOL    HW2 1966  -0.049   1.947   1.137 -0.9593 -1.8902 -1.2923
  492SOL    HW3 1967   0.028   1.925   1.009  1.2453 -0.7062 -0.1993
  492SOL    MW4 1968   0.022   1.918   1.096  0.4748 -0.0365 -0.1993
  493SOL     OW 1969   0.249   2.058   1.168  0.5214 -0.1431  0.3184
  493SOL    HW2 1970   0.253   2.149   1.140  0.4069 -0.3799 -0.4805
  493SOL    HW3 1971   0.171   2.023   1.125  1.9268 -1.2760 -1.3976
  493SOL    MW4 1972   0.239   2.065   1.159  0.6917 -0.3238 -0.0134
  494SOL     OW 1973   0.270   2.333   1.094  0.0612  0.4699  0.2900
  494SOL    HW2 1974   0.345   2.348   1.153  0.6909  0.0561 -0.3973
  494SOL    HW3 1975   0.199   2.384   1.132  0.8535  1.3241  0.6377
  494SOL    MW4 1976   0.271   2.342   1.107  0.2488  0.5280  0.2452
  495SOL     OW 1977   0.063   2.461   1.198 -0.1131 -0.3541  0.6077
  495SOL    HW2 1978   0.043   2.443   1.290  0.8458 -2.3829  0.4558
  495SOL    HW3 1979  -0.013   2.428   1.151  0.2057 -1.0240  0.5557
  495SOL    MW4 1980   0.050   2.454   1.204  0.0555 -0.7102  0.5808
  496SOL     OW 1981   0.044   2.733   1.154  0.0632  0.1925  0.1263
  496SOL    HW2 1982  -0.050   2.749   1.166 -0.1335  0.5620 -1.7925
  496SOL    HW3 1983   0.053   2.638   1.165 -0.6099  0.0960 -0.1037
  496SOL    MW4 1984   0.032   2.723   1.157 -0.0516  0.2285 -0.1572
  497SOL     OW 1985   0.251   2.897   1.251 -0.0238 -0.0590  0.3117
  497SOL    HW2 1986   0.230   2.887   1.344 -0.2583  3.5269  0.7054
  497SOL    HW3 1987   0.181   2.851   1.205  0.5007 -2.5179  1.9033
  497SOL    MW4 1988   0.239   2.890   1.258  0.0144  0.0897  0.5736
  498SOL     OW 1989   0.271   3.140   1.125  0.0412 -0.0450  0.1411
  498SOL    HW2 1990   0.351   3.187   1.150 -0.5821  1.4396 -0.6328
  498SOL    HW3 1991   0.277   3.057   1.173  2.0882  0.0039  0.0196
  498SOL    MW4 1992   0.282   3.135   1.135  0.2290  0.1573  0.0230
  499SOL     OW 1993   0.038   3.258   1.210  0.0556  0.6579 -0.2646
  499SOL    HW2 1994  -0.037   3.207   1.179 -0.2514 -0.3744  2.1217
  499SOL    HW3 1995   0.113   3.222   1.163 -0.1230 -2.1534  1.5217
  499SOL    MW4 1996   0.038   3.247   1.200 -0.0085  0.1508  0.2859
  500SOL     OW 1997   0.026   3.506   1.072 -0.0941 -0.3420  0.5674
  500SOL    HW2 1998   0.025   3.415   1.101 -0.7323 -0.4074  0.3640
  500SOL    HW3 1999   0.025   3.501   0.976  1.6895 -0.1257  0.5323
  500SOL    MW4 2000   0.026   3.493   1.063  0.0570 -0.3221  0.5360
  501SOL     OW 2001   0.257   3.564   1.193  0.0987 -0.0482  0.5103
  501SOL    HW2 2002   0.226   3.553   1.283  1.2142 -2.3488  0.6485
  501SOL    HW3 2003   0.186   3.530   1.139  0.6804 -1.5660  0.6703
  501SOL    MW4 2004   0.243   3.558   1.198  0.3226 -0.5520  0.5496
  502SOL     OW 2005   0.219   3.833   1.153 -0.2775 -0.2753 -0.6365
  502SOL    HW2 2006   0.138   3.875   1.181 -0.9286  0.2619 -3.2100
  502SOL    HW3 2007   0.209   3.742   1.179 -0.6244  0.2772  1.2719
  502SOL    MW4 2008   0.207   3.827   1.161 -0.4092 -0.1315 -0.7242
  503SOL     OW 2009   0.009   3.979   1.222  0.9719  0.4262  0.3924
  503SOL    HW2 2010   0.026   3.994   1.315 -0.5958 -0.6178  0.8739
  503SOL    HW3 2011  -0.069   3.923   1.221  1.4184 -0.1917 -1.5355
  503SOL    MW4 2012   0.001   3.974   1.235  0.8240  0.2070  0.2015
  504SOL     OW 2013   4.457   4.248   1.137 -0.2868 -0.0943  0.1336
  504SOL    HW2 2014   4.523   4.294   1.189 -0.7659 -1.3810  1.8983
  504SOL    HW3 2015   4.471   4.156   1.157 -1.2547 -0.5325 -1.1364
  504SOL    MW4 2016   4.468   4.242   1.146 -0.4777 -0.3219  0.1989
  505SOL     OW 2017   0.154   4.392   1.258  0.0218  0.0849 -0.1988
  505SOL    HW2 2018   0.173   4.382   1.351 -1.4218  1.2396  0.2284
  505SOL    HW3 2019   0.176   4.483   1.239  0.9564 -0.3258 -1.1551
  505SOL    MW4 2020   0.160   4.403   1.268 -0.0453  0.1830 -0.2686
  506SOL     OW 2021   0.645   0.010   1.140 -0.0810  0.6065 -0.2473
  506SOL    HW2 2022   0.731   0.048   1.158  0.2636 -0.5338  0.5828
  506SOL    HW3 2023   0.649  -0.078   1.179 -1.5403  0.4635 -0.3981
  506SOL    MW4 2024   0.657   0.003   1.148 -0.2281  0.4372 -0.1577
  507SOL     OW 2025   0.435   0.127   1.284  0.2937 -0.3658 -0.4968
  507SOL    HW2 2026   0.429   0.215   1.245 -0.0789 -0.6514 -1.0960
  507SOL    HW3 2027   0.515   0.090   1.248  0.7363 -0.0682  0.1808
  507SOL    MW4 2028   0.445   0.134   1.274  0.3030 -0.3642 -0.4864
  508SOL     OW 2029   0.436   0.362   1.129  0.2788 -0.3571  0.2747
  508SOL    HW2 2030   0.352   0.395   1.160 -1.0523 -2.1617 -1.2603
  508SOL    HW3 2031   0.435   0.379   1.034  0.7933 -2.0871 -0.0671
  508SOL    MW4 2032   0.425   0.368   1.120  0.1710 -0.8235  0.0271
  509SOL     OW 2033   0.633   0.520   1.257  0.3432 -0.2446 -0.5904
  509SOL    HW2 2034   0.641   0.603   1.210 -0.7363 -0.1209 -0.5729
  509SOL    HW3 2035   0.560   0.475   1.214 -1.7176  0.5602  1.9205
  509SOL    MW4 2036   0.625   0.525   1.245 -0.0712 -0.1221 -0.2568
  510SOL     OW 2037   0.667   0.770   1.110 -0.1563  0.0169 -0.4683
  510SOL    HW2 2038   0.583   0.815   1.124 -0.5787 -1.1729  0.9351
  510SOL    HW3 2039   0.676   0.766   1.015 -1.3502  0.7886 -0.6249
  510SOL    MW4 2040   0.657   0.776   1.099 -0.3696 -0.0383 -0.3038
  511SOL     OW 2041   0.440   0.888   1.233  0.1964 -0.2229 -0.0056
  511SOL    HW2 2042   0.462   0.887   1.326 -0.8191  0.3043  0.2483
  511SOL    HW3 2043   0.442   0.980   1.208 -0.9763 -0.2290 -0.1505
  511SOL    MW4 2044   0.443   0.900   1.242 -0.0923 -0.1542  0.0088
  512SOL     OW 2045   0.417   1.164   1.151  0.1957 -0.2387  0.0548
  512SOL    HW2 2046   0.497   1.213   1.173 -0.5075  1.3680 -0.8535
  512SOL    HW3 2047   0.408   1.175   1.057 -0.1236 -1.9484 -0.1296
  512SOL    MW4 2048   0.427   1.172   1.142  0.0608 -0.2523 -0.0894
  513SOL     OW 2049   0.666   1.273   1.222  0.1338 -0.0796  0.4033
  513SOL    HW2 2050   0.743   1.226   1.187  1.0481  1.4350  0.3444
  513SOL    HW3 2051   0.670   1.359   1.181 -0.1662  0.8866  2.3566
  513SOL    MW4 2052   0.677   1.278   1.212  0.2148  0.2477  0.6532
  514SOL     OW 2053   0.673   1.518   1.072 -0.3991  0.2682 -0.4973
  514SOL    HW2 2054   0.739   1.576   1.110 -0.2297  0.8090 -1.5816
  514SOL    HW3 2055   0.591   1.568   1.077 -0.5294  0.0126 -0.0944
  514SOL    MW4 2056   0.671   1.532   1.078 -0.3939  0.3058 -0.5872
  515SOL     OW 2057   0.469   1.720   1.164 -0.1011 -0.2215  0.3114
  515SOL    HW2 2058   0.466   1.721   1.260  0.0338 -4.3181  0.4319
  515SOL    HW3 2059   0.398   1.662   1.138 -0.7025  1.5495 -2.1652
  515SOL    MW4 2060   0.460   1.713   1.173 -0.1626 -0.5283  0.0005
  516SOL     OW 2061   0.476   1.963   1.047  0.2167 -0.4283 -0.2887
  516SOL    HW2 2062   0.470   1.876   1.085 -0.6721  0.6613  2.1627
  516SOL    HW3 2063   0.410   2.014   1.093  1.0214  1.6540 -1.3788
  516SOL    MW4 2064   0.467   1.958   1.058  0.2056 -0.0098 -0.1091
  517SOL     OW 2065   0.725   2.036   1.138 -0.7719  0.0863 -0.3977
  517SOL    HW2 2066   0.705   2.042   1.232 -1.0556 -1.1779 -0.3659
  517SOL    HW3 2067   0.645   2.001   1.099 -0.5426  0.3009 -1.0632
  517SOL    MW4 2068   0.712   2.032   1.145 -0.7791 -0.0522 -0.4813
  518SOL     OW 2069   0.703   2.315   1.129  0.1600  0.3721 -0.2232
  518SOL    HW2 2070   0.630   2.343   1.183  0.9353  1.6512  0.1878
  518SOL    HW3 2071   0.702   2.220   1.134 -1.8481  0.3533 -0.7314
  518SOL    MW4 2072   0.693   2.307   1.137 -0.0026  0.5384 -0.2360
  519SOL     OW 2073   0.471   2.419   1.243  0.2919  0.2933  0.2526
  519SOL    HW2 2074   0.435   2.409   1.331 -1.1958 -1.4065 -0.5291
  519SOL    HW3 2075   0.445   2.507   1.216 -0.5545  0.2466  0.9151
  519SOL    MW4 2076   0.463   2.429   1.251 -0.0161  0.0629  0.2369
  520SOL     OW 2077   0.443   2.701   1.163  0.0884 -0.5780 -0.1363
  520SOL    HW2 2078   0.399   2.767   1.216  1.2568 -1.4142  1.9210
  520SOL    HW3 2079   0.409   2.715   1.074 -1.8971  0.8446  0.8066
  520SOL    MW4 2080   0.433   2.711   1.158 -0.0194 -0.5007  0.2596
  521SOL     OW 2081   0.676   2.826   1.237 -0.5337 -0.2358  0.0724
  521SOL    HW2 2082   0.671   2.916   1.203  0.2732 -0.0999  0.2914
  521SOL    HW3 2083   0.598   2.783   1.203  0.2802 -0.1331 -2.0444
  521SOL    MW4 2084   0.665   2.832   1.228 -0.3199 -0.2043 -0.1780
  522SOL     OW 2085   0.666   3.070   1.126 -0.4298 -0.0441  0.1243
  522SOL    HW2 2086   0.752   3.106   1.147 -0.2922 -0.2464 -0.0933
  522SOL    HW3 2087   0.657   3.083   1.031  0.8755 -3.2853 -0.4994
  522SOL    MW4 2088   0.676   3.076   1.116 -0.2395 -0.4984  0.0133
  523SOL     OW 2089   0.508   3.235   1.258  0.3523 -0.0243  0.7183
  523SOL    HW2 2090   0.511   3.321   1.216  0.4183 -0.1407  0.4791
  523SOL    HW3 2091   0.576   3.184   1.213 -0.7894 -0.7027 -0.2736
  523SOL    MW4 2092   0.517   3.239   1.246  0.2104 -0.1292  0.5559
  524SOL     OW 2093   0.504   3.478   1.125 -0.1572  0.2107  0.4187
  524SOL    HW2 2094   0.566   3.533   1.172  1.2291 -1.3029  0.3696
  524SOL    HW3 2095   0.418   3.517   1.145  0.5923  0.9245  2.3440
  524SOL    MW4 2096   0.501   3.491   1.134  0.1246  0.1052  0.6662
  525SOL     OW 2097   0.707   3.615   1.257 -0.3661  0.1029 -0.1830
  525SOL    HW2 2098   0.690   3.623   1.351 -0.9331  0.1509 -0.2875
  525SOL    HW3 2099   0.667   3.693   1.219 -2.6623 -1.3160 -0.7801
  525SOL    MW4 2100   0.699   3.626   1.264 -0.7438 -0.0779 -0.2756
  526SOL     OW 2101   0.626   3.861   1.148 -0.2176 -0.1017  0.2783
  526SOL    HW2 2102   0.549   3.904   1.186  0.6468  0.9696  0.8169
  526SOL    HW3 2103   0.616   3.873   1.053  0.1179  1.4693  0.4303
  526SOL    MW4 2104   0.614   3.868   1.140 -0.0593  0.2469  0.3694
  527SOL     OW 2105   0.411   4.008   1.233  0.3351 -0.2492 -0.4881
  527SOL    HW2 2106   0.398   4.093   1.191  0.4256 -0.5843 -1.1897
  527SOL    HW3 2107   0.337   3.955   1.205 -0.4581  0.0266  1.0599
  527SOL    MW4 2108   0.400   4.012   1.224  0.2424 -0.2570 -0.3764
  528SOL     OW 2109   0.392   4.286   1.150  0.6281 -0.3906 -0.1727
  528SOL    HW2 2110   0.461   4.330   1.200  1.0795 -0.6726 -0.5453
  528SOL    HW3 2111   0.311   4.322   1.185  0.9571 -0.2250  0.4286
  528SOL    MW4 2112   0.390   4.297   1.161  0.7310 -0.4060 -0.1425
  529SOL     OW 2113   0.647   4.424   1.247  0.0836  0.0038  0.3360
  529SOL    HW2 2114   0.657   4.409   1.341 -0.4174 -1.5433  0.1673
  529SOL    HW3 2115   0.723   4.381   1.208 -0.0453  0.0854 -0.0088
  529SOL    MW4 2116   0.658   4.416   1.254  0.0005 -0.1895  0.2683
  530SOL     OW 2117   1.099   4.617   1.142  0.2274 -0.1457 -0.3561
  530SOL    HW2 2118   1.102   4.522   1.156 -0.2526 -0.3491 -1.5505
  530SOL    HW3 2119   1.111   4.627   1.047  1.5377  1.0586 -0.0829
  530SOL    MW4 2120   1.101   4.605   1.131  0.3369 -0.0136 -0.4777
  531SOL     OW 2121   0.877   0.107   1.222 -0.1514 -0.2938 -0.1389
  531SOL    HW2 2122   0.872   0.102   1.318 -1.1225 -0.4221 -0.1973
  531SOL    HW3 2123   0.950   0.050   1.199  0.7770  0.5632  0.6042
  531SOL    MW4 2124   0.886   0.099   1.232 -0.1570 -0.1977 -0.0486
  532SOL     OW 2125   0.850   0.384   1.139 -0.2329  0.5558  0.2219
  532SOL    HW2 2126   0.847   0.292   1.166 -2.5470  0.5338 -0.0797
  532SOL    HW3 2127   0.773   0.424   1.178  0.0715  2.0963 -0.6972
  532SOL    MW4 2128   0.840   0.377   1.148 -0.4980  0.7561  0.0609
  533SOL     OW 2129   1.103   0.480   1.216 -0.7318 -0.3638  0.2010
  533SOL    HW2 2130   1.101   0.478   1.312  0.7315  0.1867  0.2507
  533SOL    HW3 2131   1.018   0.444   1.190 -0.3950 -2.3382  1.6690
  533SOL    MW4 2132   1.091   0.475   1.225 -0.4943 -0.5517  0.4013
  534SOL     OW 2133   1.093   0.736   1.153 -0.1768  0.0180 -0.0482
  534SOL    HW2 2134   1.029   0.781   1.208  0.9926 -0.4239  1.6975
  534SOL    HW3 2135   1.083   0.643   1.175 -0.8539 -0.3670 -1.8349
  534SOL    MW4 2136   1.083   0.730   1.163 -0.1118 -0.0911 -0.0536
  535SOL     OW 2137   0.874   0.856   1.280  0.1101 -0.3756  0.8015
  535SOL    HW2 2138   0.888   0.935   1.227  1.3807 -0.6413  0.7137
  535SOL    HW3 2139   0.802   0.810   1.237  0.0244  0.2430  0.2774
  535SOL    MW4 2140   0.867   0.861   1.267  0.2664 -0.3290  0.7208
  536SOL     OW 2141   0.885   1.125   1.164 -0.0188 -0.0074 -0.1301
  536SOL    HW2 2142   0.959   1.174   1.199  0.5496 -0.7338 -0.3042
  536SOL    HW3 2143   0.895   1.133   1.069  0.0346 -0.3905 -0.1579
  536SOL    MW4 2144   0.896   1.133   1.156  0.0632 -0.1538 -0.1567
  537SOL     OW 2145   1.089   1.293   1.253 -0.0877  0.1558  0.2582
  537SOL    HW2 2146   1.097   1.317   1.346 -0.6818  1.8395 -0.0992
  537SOL    HW3 2147   1.171   1.248   1.233  0.4446  0.5964  1.3694
  537SOL    MW4 2148   1.101   1.291   1.263 -0.0958  0.4361  0.3577
  538SOL     OW 2149   1.142   1.552   1.120  0.3753 -0.1336  0.3549
  538SOL    HW2 2150   1.101   1.468   1.142 -0.1445  0.1776  0.5941
  538SOL    HW3 2151   1.138   1.555   1.024 -0.0489 -0.1635  0.3703
  538SOL    MW4 2152   1.136   1.541   1.110  0.2508 -0.0965  0.3885
  539SOL     OW 2153   0.910   1.665   1.181  0.1781 -0.1254 -0.2211
  539SOL    HW2 2154   0.896   1.745   1.131 -1.8451 -0.5063 -0.3049
  539SOL    HW3 2155   0.987   1.624   1.141  0.9725  1.5604 -0.4327
  539SOL    MW4 2156   0.918   1.670   1.169  0.0160  0.0468 -0.2601
  540SOL     OW 2157   0.964   1.895   1.028  0.5885  0.2273  0.1169
  540SOL    HW2 2158   1.027   1.920   1.096 -0.4063 -1.9652  1.9212
  540SOL    HW3 2159   0.888   1.949   1.045  0.3522 -0.2945  0.7625
  540SOL    MW4 2160   0.963   1.905   1.039  0.4261 -0.1308  0.4402
  541SOL     OW 2161   1.136   2.043   1.233 -0.2722 -0.2250 -0.1664
  541SOL    HW2 2162   1.141   2.048   1.328  1.1447 -0.7562 -0.2040
  541SOL    HW3 2163   1.120   2.133   1.204  0.6036  0.1462  0.4972
  541SOL    MW4 2164   1.135   2.055   1.242  0.0303 -0.2461 -0.0838
  542SOL     OW 2165   1.151   2.312   1.118  0.0611  0.0455 -0.5210
  542SOL    HW2 2166   1.240   2.345   1.135  0.8299 -2.5891  0.9066
  542SOL    HW3 2167   1.094   2.377   1.159  1.4479  0.4068  0.9145
  542SOL    MW4 2168   1.155   2.325   1.126  0.3455 -0.2545 -0.1433
  543SOL     OW 2169   0.929   2.461   1.222 -0.6068  0.4511 -0.5727
  543SOL    HW2 2170   0.931   2.454   1.317 -0.6297  1.4973 -0.4836
  543SOL    HW3 2171   0.851   2.411   1.196 -0.7450  0.3747 -0.0237
  543SOL    MW4 2172   0.919   2.454   1.231 -0.6281  0.5791 -0.4885
  544SOL     OW 2173   0.933   2.734   1.146  0.5263 -0.2035 -0.1128
  544SOL    HW2 2174   0.917   2.640   1.157  0.3006 -0.0893  0.5772
  544SOL    HW3 2175   0.858   2.776   1.186  1.6146  0.3049  1.4643
  544SOL    MW4 2176   0.921   2.727   1.153  0.6401 -0.1214  0.1863
  545SOL     OW 2177   1.162   2.845   1.248  0.1336  0.5510  0.0217
  545SOL    HW2 2178   1.156   2.827   1.342 -0.9082  0.2509 -0.0863
  545SOL    HW3 2179   1.092   2.792   1.210  2.7560 -2.0729 -1.3474
  545SOL    MW4 2180   1.152   2.835   1.255  0.3422  0.1652 -0.1732
  546SOL     OW 2181   1.154   3.116   1.149  0.1867  0.2964 -0.3219
  546SOL    HW2 2182   1.149   3.022   1.163 -1.9915  0.5123  0.5928
  546SOL    HW3 2183   1.130   3.129   1.057 -1.0616  0.0531 -0.0428
  546SOL    MW4 2184   1.150   3.106   1.139 -0.2654  0.2928 -0.1644
  547SOL     OW 2185   0.900   3.193   1.211 -0.4677  0.3208 -0.1417
  547SOL    HW2 2186   0.913   3.287   1.201  0.3661  0.2574  0.3073
  547SOL    HW3 2187   0.987   3.155   1.202 -0.6541 -0.3166  0.6778
  547SOL    MW4 2188   0.913   3.201   1.209 -0.3823  0.2283  0.0257
  548SOL     OW 2189   0.914   3.474   1.139 -0.4487  0.2431 -0.1490
  548SOL    HW2 2190   0.834   3.516   1.172 -0.5970  0.4929 -0.8221
  548SOL    HW3 2191   0.906   3.480   1.044  1.0931  1.6432 -0.2126
  548SOL    MW4 2192   0.902   3.481   1.131 -0.2648  0.4608 -0.2462
  549SOL     OW 2193   1.133   3.614   1.269  0.8257 -0.1036 -0.2072
  549SOL    HW2 2194   1.212   3.573   1.232  0.8947  0.5203 -0.7496
  549SOL    HW3 2195   1.060   3.571   1.225  0.9279  1.4437 -1.9337
  549SOL    MW4 2196   1.134   3.603   1.259  0.8483  0.1829 -0.5065
  550SOL     OW 2197   1.102   3.865   1.159  0.0541  0.2760 -0.6483
  550SOL    HW2 2198   1.024   3.906   1.195  0.3607 -0.2020  0.5860
  550SOL    HW3 2199   1.117   3.788   1.214  0.1260 -0.8767 -2.2478
  550SOL    MW4 2200   1.094   3.860   1.171  0.1040  0.0608 -0.6965
  551SOL     OW 2201   0.874   3.978   1.251 -0.0342  0.0326  0.1064
  551SOL    HW2 2202   0.840   3.987   1.340  0.0334  0.5828  0.0778
  551SOL    HW3 2203   0.804   3.935   1.202 -0.2344  0.1123  0.3228
  551SOL    MW4 2204   0.861   3.973   1.256 -0.0517  0.1157  0.1312
  552SOL     OW 2205   0.863   4.257   1.132 -0.0602 -0.0961 -0.2412
  552SOL    HW2 2206   0.873   4.166   1.157 -1.4088  0.1285  1.1840
  552SOL    HW3 2207   0.906   4.263   1.046 -0.5138 -2.2063 -0.6481
  552SOL    MW4 2208   0.870   4.246   1.124 -0.2980 -0.3449 -0.1069
  553SOL     OW 2209   1.106   4.350   1.226  0.1248 -0.5517  0.5355
  553SOL    HW2 2210   1.104   4.348   1.322 -0.2061 -0.0665  0.5416
  553SOL    HW3 2211   1.021   4.315   1.199 -0.6132  1.2177  0.4633
  553SOL    MW4 2212   1.095   4.345   1.235 -0.0162 -0.2542  0.5268
  554SOL     OW 2213   1.543   4.636   1.087  0.1519 -0.0898 -0.4831
  554SOL    HW2 2214   1.620   4.672   1.130 -0.9308  1.5447  0.1386
  554SOL    HW3 2215   1.531   4.549   1.126  0.2254  0.6604  1.2266
  554SOL    MW4 2216   1.552   4.629   1.098  0.0187  0.2248 -0.1755
  555SOL     OW 2217   1.333   0.084   1.239  0.6701  0.4408  0.2829
  555SOL    HW2 2218   1.408   0.055   1.187  0.4586  0.9312 -0.3154
  555SOL    HW3 2219   1.259   0.033   1.204  0.2052  2.0087 -1.1154
  555SOL    MW4 2220   1.333   0.074   1.227  0.5809  0.7123  0.0195
  556SOL     OW 2221   1.343   0.348   1.145  0.0288  0.4143  0.2456
  556SOL    HW2 2222   1.339   0.263   1.188 -1.3261 -0.1426 -0.9480
  556SOL    HW3 2223   1.265   0.394   1.174  0.9715  1.4384  1.2208
  556SOL    MW4 2224   1.332   0.343   1.155 -0.0255  0.4759  0.2168
  557SOL     OW 2225   1.549   0.521   1.221  0.3829  0.2634  0.5972
  557SOL    HW2 2226   1.547   0.603   1.172  1.2093 -0.3272 -0.4413
  557SOL    HW3 2227   1.482   0.466   1.179 -0.7509  0.6905  1.8186
  557SOL    MW4 2228   1.540   0.524   1.209  0.3424  0.2418  0.6214
  558SOL     OW 2229   1.539   0.783   1.104 -0.5238 -0.7596  0.1618
  558SOL    HW2 2230   1.611   0.835   1.139  0.6004 -2.9310  1.1971
  558SOL    HW3 2231   1.544   0.795   1.010  0.9317 -0.5659  0.2604
  558SOL    MW4 2232   1.549   0.791   1.097 -0.1835 -1.0205  0.3114
  559SOL     OW 2233   1.317   0.866   1.264 -0.0511 -0.5393  0.1942
  559SOL    HW2 2234   1.383   0.837   1.201  0.8171 -1.3643  1.4685
  559SOL    HW3 2235   1.235   0.830   1.230  0.2595 -0.1442 -0.9902
  559SOL    MW4 2236   1.315   0.857   1.251  0.1044 -0.5960  0.2061
  560SOL     OW 2237   1.339   1.150   1.189 -0.0907 -0.3590  0.4709
  560SOL    HW2 2238   1.339   1.056   1.208  0.6437 -0.0997  1.8203
  560SOL    HW3 2239   1.357   1.155   1.095  1.6267 -1.5382  0.7076
  560SOL    MW4 2240   1.342   1.138   1.179  0.2328 -0.4804  0.6801
  561SOL     OW 2241   1.544   1.330   1.225  0.1040  0.4129 -0.6214
  561SOL    HW2 2242   1.615   1.273   1.194  0.3760  0.2670  0.2627
  561SOL    HW3 2243   1.464   1.282   1.202  0.2250  1.2490 -2.9421
  561SOL    MW4 2244   1.543   1.316   1.218  0.1559  0.5039 -0.8109
  562SOL     OW 2245   1.556   1.576   1.080  0.2772  0.2316  0.4779
  562SOL    HW2 2246   1.619   1.633   1.124  0.0178  0.4387  0.5872
  562SOL    HW3 2247   1.560   1.493   1.129 -0.0340  0.4706  0.9157
  562SOL    MW4 2248   1.564   1.573   1.093  0.2019  0.2904  0.5501
  563SOL     OW 2249   1.349   1.674   1.246  0.4392 -0.1538  0.3427
  563SOL    HW2 2250   1.417   1.639   1.189  0.8360  1.6350 -0.3154
  563SOL    HW3 2251   1.269   1.628   1.219  1.1267 -1.2674  0.1928
  563SOL    MW4 2252   1.347   1.664   1.235  0.5823 -0.0647  0.2361
  564SOL     OW 2253   1.356   1.921   1.128  0.9292  0.4319  0.2861
  564SOL    HW2 2254   1.360   1.832   1.163 -0.1877 -0.1762 -1.0782
  564SOL    HW3 2255   1.284   1.962   1.175  0.2508  0.0208 -0.3873
  564SOL    MW4 2256   1.347   1.915   1.139  0.6924  0.2974  0.0173
  565SOL     OW 2257   1.613   2.100   1.228  0.3757  0.5000  0.4038
  565SOL    HW2 2258   1.610   2.189   1.193 -0.0579  0.0687 -0.6562
  565SOL    HW3 2259   1.530   2.060   1.201  0.9105 -0.4847  0.1792
  565SOL    MW4 2260   1.602   2.106   1.220  0.3891  0.3132  0.2343
  566SOL     OW 2261   1.616   2.345   1.108  0.4003  0.1858  0.7062
  566SOL    HW2 2262   1.535   2.394   1.124 -0.0717 -0.5610  0.6265
  566SOL    HW3 2263   1.621   2.338   1.012  0.9145  0.8155  0.6840
  566SOL    MW4 2264   1.606   2.350   1.097  0.4058  0.1704  0.6928
  567SOL     OW 2265   1.374   2.494   1.176  0.0139 -0.2161  0.2989
  567SOL    HW2 2266   1.377   2.502   1.271 -0.8681 -0.7261  0.3680
  567SOL    HW3 2267   1.371   2.584   1.145  2.2837  0.0318  0.6702
  567SOL    MW4 2268   1.374   2.507   1.184  0.1970 -0.2506  0.3570
  568SOL     OW 2269   1.387   2.772   1.094  0.1283 -0.1232  0.2502
  568SOL    HW2 2270   1.463   2.796   1.147  1.1117  0.7289 -1.5081
  568SOL    HW3 2271   1.312   2.809   1.142  1.0155  0.9120  0.8755
  568SOL    MW4 2272   1.387   2.780   1.108  0.3751  0.1258  0.1007
  569SOL     OW 2273   1.627   2.804   1.256  0.0268  0.3596  0.6029
  569SOL    HW2 2274   1.708   2.781   1.212 -1.1086 -0.3330 -1.1916
  569SOL    HW3 2275   1.604   2.890   1.220 -1.7829 -0.9464 -1.5210
  569SOL    MW4 2276   1.635   2.813   1.245 -0.3618  0.0959  0.0859
  570SOL     OW 2277   1.609   3.051   1.140 -0.3867 -0.2405 -0.0932
  570SOL    HW2 2278   1.695   3.082   1.168 -0.1596 -0.7215 -0.2551
  570SOL    HW3 2279   1.547   3.106   1.187  0.0130  0.1645 -0.0424
  570SOL    MW4 2280   1.612   3.062   1.150 -0.3040 -0.2505 -0.1079
  571SOL     OW 2281   1.395   3.173   1.257  0.2840 -0.0423 -0.1198
  571SOL    HW2 2282   1.373   3.185   1.350  0.2461  0.9607 -0.2559
  571SOL    HW3 2283   1.310   3.155   1.215  0.2459 -0.0915 -0.0217
  571SOL    MW4 2284   1.381   3.172   1.264  0.2740  0.0836 -0.1248
  572SOL     OW 2285   1.349   3.432   1.182 -0.4383 -0.4252 -0.1077
  572SOL    HW2 2286   1.370   3.338   1.186  0.6771 -0.1835 -0.0948
  572SOL    HW3 2287   1.344   3.451   1.088  0.1318 -0.3313 -0.1219
  572SOL    MW4 2288   1.351   3.422   1.170 -0.2159 -0.3809 -0.1079
  573SOL     OW 2289   1.570   3.609   1.277  0.1109  0.1495 -0.3231
  573SOL    HW2 2290   1.548   3.701   1.262  0.4052  0.3872  0.6489
  573SOL    HW3 2291   1.491   3.561   1.253 -0.3813  0.7380  0.0977
  573SOL    MW4 2292   1.557   3.615   1.272  0.0848  0.2585 -0.1393
  574SOL     OW 2293   1.520   3.861   1.160  0.0155  0.7488  0.0815
  574SOL    HW2 2294   1.454   3.912   1.206 -0.5057 -0.5035  0.7614
  574SOL    HW3 2295   1.485   3.851   1.072 -0.6641  0.1714  0.4151
  574SOL    MW4 2296   1.507   3.866   1.154 -0.1430  0.5074  0.2152
  575SOL     OW 2297   1.326   4.016   1.263 -0.6369  0.3797 -0.0636
  575SOL    HW2 2298   1.340   4.093   1.208 -2.0034  2.7127  2.6801
  575SOL    HW3 2299   1.243   3.980   1.233  0.7432 -1.0268 -2.3812
  575SOL    MW4 2300   1.317   4.022   1.252 -0.6351  0.5019 -0.0074
  576SOL     OW 2301   1.332   4.239   1.104  0.1639 -0.0379  0.4185
  576SOL    HW2 2302   1.251   4.272   1.144  0.0119 -1.0972  0.9934
  576SOL    HW3 2303   1.316   4.242   1.010 -0.1622  0.7231  0.4950
  576SOL    MW4 2304   1.319   4.244   1.097  0.1008 -0.0772  0.5044
  577SOL     OW 2305   1.522   4.397   1.209 -0.5671 -0.0269  0.1239
  577SOL    HW2 2306   1.521   4.382   1.304  1.7675 -0.9328  0.0280
  577SOL    HW3 2307   1.462   4.331   1.174 -1.0947  0.0163  0.9185
  577SOL    MW4 2308   1.514   4.386   1.217 -0.3287 -0.1407  0.2161
  578SOL     OW 2309   2.027   4.645   1.132 -0.4132 -0.5810  0.1463
  578SOL    HW2 2310   2.054   4.557   1.159 -0.4261 -0.4761  0.5090
  578SOL    HW3 2311   2.025   4.641   1.037 -1.5248 -1.2962  0.1880
  578SOL    MW4 2312   2.031   4.633   1.123 -0.5616 -0.6615  0.1996
  579SOL     OW 2313   1.797   0.127   1.174  0.3237 -0.3799  0.3182
  579SOL    HW2 2314   1.814   0.213   1.137  1.3306 -0.7058  0.0003
  579SOL    HW3 2315   1.876   0.076   1.153 -0.6540 -1.6547 -0.3303
  579SOL    MW4 2316   1.810   0.131   1.166  0.3275 -0.5911  0.1907
  580SOL     OW 2317   1.795   0.433   1.132  0.1889  0.0589  0.3190
  580SOL    HW2 2318   1.711   0.473   1.156  0.5295  0.6885  0.4888
  580SOL    HW3 2319   1.786   0.413   1.039 -0.8125 -1.5773  0.7630
  580SOL    MW4 2320   1.783   0.436   1.123  0.1018 -0.0739  0.4000
  581SOL     OW 2321   2.000   0.561   1.215  0.2780 -0.3582  0.3226
  581SOL    HW2 2322   2.007   0.538   1.308 -1.7123  1.0715  0.8650
  581SOL    HW3 2323   1.925   0.512   1.184  0.3900 -0.1365 -0.3090
  581SOL    MW4 2324   1.991   0.552   1.223  0.0302 -0.1403  0.3108
  582SOL     OW 2325   2.021   0.823   1.094 -0.2596  0.3973 -0.4052
  582SOL    HW2 2326   2.023   0.735   1.133  1.4365  0.1349 -1.0390
  582SOL    HW3 2327   2.081   0.817   1.020  0.0794  2.1828 -0.2821
  582SOL    MW4 2328   2.029   0.810   1.090  0.0089  0.5982 -0.4726
  583SOL     OW 2329   1.763   0.907   1.208  0.4181  0.0185 -0.1863
  583SOL    HW2 2330   1.784   0.883   1.298  0.7905  0.3509 -0.1833
  583SOL    HW3 2331   1.838   0.875   1.157 -0.3832 -1.3220 -0.5507
  583SOL    MW4 2332   1.776   0.899   1.213  0.3615 -0.1145 -0.2340
  584SOL     OW 2333   1.751   1.170   1.165  0.2817  0.7279 -0.4041
  584SOL    HW2 2334   1.752   1.083   1.206 -1.4844  0.6876 -0.4026
  584SOL    HW3 2335   1.786   1.155   1.077  0.9626  0.2128 -0.0526
  584SOL    MW4 2336   1.756   1.156   1.158  0.1385  0.6546 -0.3575
  585SOL     OW 2337   2.013   1.302   1.247 -0.9259 -0.4896  0.0029
  585SOL    HW2 2338   2.067   1.257   1.182 -0.6723  1.6940 -1.3397
  585SOL    HW3 2339   1.927   1.260   1.240  0.4132 -3.6855  1.8600
  585SOL    MW4 2340   2.009   1.291   1.237 -0.7157 -0.6232  0.0708
  586SOL     OW 2341   2.012   1.560   1.135  0.4831 -0.0370 -0.6178
  586SOL    HW2 2342   1.999   1.470   1.164 -0.4527  0.1912 -0.3185
  586SOL    HW3 2343   1.970   1.565   1.050  1.7520 -0.2501 -1.2623
  586SOL    MW4 2344   2.005   1.549   1.128  0.5270 -0.0350 -0.6633
  587SOL     OW 2345   1.769   1.694   1.217 -0.1579  0.0172  0.4417
  587SOL    HW2 2346   1.794   1.773   1.170 -0.3456 -0.5638 -0.6693
  587SOL    HW3 2347   1.843   1.635   1.207  1.0040  0.8989  3.3382
  587SOL    MW4 2348   1.782   1.696   1.209 -0.0294  0.0569  0.6772
  588SOL     OW 2349   1.830   1.959   1.132  0.0409  0.5110  0.1575
  588SOL    HW2 2350   1.754   1.998   1.175  1.1838  0.4098  2.3626
  588SOL    HW3 2351   1.816   1.975   1.039 -1.8262  1.9872  0.6560
  588SOL    MW4 2352   1.818   1.966   1.126 -0.0547  0.6924  0.5142
  589SOL     OW 2353   2.065   2.085   1.232 -0.3558 -0.4738  0.2449
  589SOL    HW2 2354   2.064   2.066   1.325 -1.4272  0.2634  0.3915
  589SOL    HW3 2355   1.988   2.040   1.197  0.2096 -1.0038 -0.3364
  589SOL    MW4 2356   2.054   2.077   1.239 -0.4225 -0.4464  0.1876
  590SOL     OW 2357   2.058   2.331   1.078  0.1925 -0.1366  0.0010
  590SOL    HW2 2358   2.125   2.395   1.104 -1.0057  0.6797  1.1806
  590SOL    HW3 2359   2.062   2.263   1.145  0.5562 -0.6213 -0.5118
  590SOL    MW4 2360   2.067   2.331   1.090  0.0824 -0.0928  0.0890
  591SOL     OW 2361   1.848   2.466   1.209  0.5246  0.2315 -0.1680
  591SOL    HW2 2362   1.904   2.413   1.153  2.5723 -0.0990  2.1137
  591SOL    HW3 2363   1.762   2.423   1.205  0.6104  0.2319 -2.9913
  591SOL    MW4 2364   1.844   2.454   1.201  0.8061  0.1880 -0.2394
  592SOL     OW 2365   1.843   2.724   1.095  0.4069 -0.1357 -0.0088
  592SOL    HW2 2366   1.827   2.634   1.121  0.1765  0.2333  1.1416
  592SOL    HW3 2367   1.837   2.723   0.999  0.6121 -1.3719 -0.0114
  592SOL    MW4 2368   1.840   2.712   1.086  0.4036 -0.2501  0.1426
  593SOL     OW 2369   2.031   2.845   1.267  0.4352  0.6192  0.2359
  593SOL    HW2 2370   2.045   2.932   1.228  0.0408  0.5438 -0.0850
  593SOL    HW3 2371   1.951   2.813   1.224  0.7423 -0.0210  0.1464
  593SOL    MW4 2372   2.022   2.853   1.256  0.4237  0.5248  0.1817
  594SOL     OW 2373   2.069   3.103   1.172 -0.0567  0.6954 -0.6233
  594SOL    HW2 2374   1.980   3.128   1.196  0.5041  2.8474 -0.6906
  594SOL    HW3 2375   2.064   3.088   1.077 -0.4229  0.4123 -0.5629
  594SOL    MW4 2376   2.056   3.104   1.162 -0.0310  0.9420 -0.6242
  595SOL     OW 2377   1.827   3.192   1.261 -0.4765 -0.2815 -0.3873
  595SOL    HW2 2378   1.800   3.191   1.353  0.6028 -2.0813 -0.0451
  595SOL    HW3 2379   1.841   3.284   1.241 -0.1524  0.0950  1.4386
  595SOL    MW4 2380   1.825   3.204   1.271 -0.2913 -0.4693 -0.1012
  596SOL     OW 2381   1.839   3.467   1.258  0.1536 -0.3509 -0.7310
  596SOL    HW2 2382   1.907   3.533   1.273  0.5506 -0.7076 -0.9855
  596SOL    HW3 2383   1.757   3.515   1.272  0.4821 -0.3304  1.2953
  596SOL    MW4 2384   1.837   3.482   1.262  0.2494 -0.3952 -0.4973
  597SOL     OW 2385   2.016   3.670   1.248 -0.3478  0.3130 -0.4827
  597SOL    HW2 2386   2.034   3.684   1.341 -1.2247 -1.1034 -0.0847
  597SOL    HW3 2387   2.089   3.617   1.217  0.2935  1.3504 -0.7716
  597SOL    MW4 2388   2.028   3.665   1.256 -0.3789  0.2630 -0.4683
  598SOL     OW 2389   2.006   3.923   1.124  0.6670  0.1853  0.0044
  598SOL    HW2 2390   1.931   3.977   1.150  0.0073 -0.1350 -1.1601
  598SOL    HW3 2391   1.986   3.836   1.157  0.2155 -0.0409 -0.8510
  598SOL    MW4 2392   1.993   3.919   1.131  0.5204  0.1132 -0.2621
  599SOL     OW 2393   1.758   4.026   1.209  0.4926 -0.4782  0.0508
  599SOL    HW2 2394   1.760   4.019   1.305  0.9377 -0.6223  0.0310
  599SOL    HW3 2395   1.681   3.975   1.183 -0.0874  0.2205  0.3902
  599SOL    MW4 2396   1.748   4.018   1.218  0.4748 -0.4050  0.0929
  600SOL     OW 2397   1.773   4.295   1.146  0.2708  0.0781 -0.0408
  600SOL    HW2 2398   1.772   4.200   1.158 -1.7292 -0.0397 -0.9126
  600SOL    HW3 2399   1.682   4.322   1.159  0.4528  1.6071 -1.6814
  600SOL    MW4 2400   1.760   4.286   1.149  0.0310  0.2643 -0.3723
  601SOL     OW 2401   2.029   4.371   1.232  0.2328 -0.4726 -0.0928
  601SOL    HW2 2402   2.032   4.351   1.325  0.1278 -1.1359 -0.2300
  601SOL    HW3 2403   1.936   4.367   1.209  0.1272  0.9565  0.0409
  601SOL    MW4 2404   2.017   4.368   1.241  0.2050 -0.3715 -0.0933
  602SOL     OW 2405   2.487   0.017   1.128  0.0475 -0.1751 -0.1580
  602SOL    HW2 2406   2.562   0.051   1.177  0.1766 -1.1083  0.2945
  602SOL    HW3 2407   2.413   0.068   1.159  0.2280 -0.3512  0.5758
  602SOL    MW4 2408   2.487   0.028   1.138  0.0883 -0.3215 -0.0015
  603SOL     OW 2409   2.247   0.118   1.223  0.8285  0.2268  0.4918
  603SOL    HW2 2410   2.237   0.213   1.219  1.4866  0.2928  0.3254
  603SOL    HW3 2411   2.169   0.083   1.179 -0.3800  0.6456  2.2323
  603SOL    MW4 2412   2.235   0.126   1.217  0.7559  0.2907  0.6995
  604SOL     OW 2413   2.210   0.400   1.137  0.1664  0.0835  0.3342
  604SOL    HW2 2414   2.131   0.451   1.155  0.0558  0.5490 -1.3635
  604SOL    HW3 2415   2.209   0.386   1.042  0.0587 -3.3055  0.7569
  604SOL    MW4 2416   2.200   0.405   1.127  0.1376 -0.3023  0.1660
  605SOL     OW 2417   2.451   0.512   1.248  1.0512  0.0736 -0.1470
  605SOL    HW2 2418   2.436   0.526   1.341  0.4600  1.0221 -0.3812
  605SOL    HW3 2419   2.374   0.462   1.219  0.7806  0.5873 -0.3159
  605SOL    MW4 2420   2.439   0.507   1.257  0.9375  0.2665 -0.2002
  606SOL     OW 2421   2.484   0.755   1.112  0.2068  0.6344  0.1137
  606SOL    HW2 2422   2.471   0.664   1.141 -0.1291  0.8990  0.8107
  606SOL    HW3 2423   2.508   0.747   1.019  0.3633 -0.1749  0.2150
  606SOL    MW4 2424   2.485   0.742   1.103  0.1832  0.5625  0.2191
  607SOL     OW 2425   2.264   0.903   1.226 -0.0162 -0.2842  0.1870
  607SOL    HW2 2426   2.339   0.873   1.174 -0.3794 -1.2526  0.2116
  607SOL    HW3 2427   2.187   0.870   1.178 -0.4949  1.8723 -0.5826
  607SOL    MW4 2428   2.264   0.895   1.213 -0.1273 -0.1275  0.0887
  608SOL     OW 2429   2.211   1.152   1.105  0.0171 -0.3470 -0.0505
  608SOL    HW2 2430   2.302   1.176   1.123 -0.5319  0.6595  1.4381
  608SOL    HW3 2431   2.207   1.058   1.124  0.7564 -0.4077 -0.1763
  608SOL    MW4 2432   2.223   1.142   1.110  0.0422 -0.2222  0.1293
  609SOL     OW 2433   2.447   1.245   1.179 -0.6184 -0.1851  0.0232
  609SOL    HW2 2434   2.532   1.201   1.179 -0.2445  0.5400  0.0730
  609SOL    HW3 2435   2.468   1.338   1.175 -1.4189 -0.0201 -0.4448
  609SOL    MW4 2436   2.461   1.251   1.178 -0.6747 -0.0676 -0.0320
  610SOL     OW 2437   2.503   1.515   1.121  0.0604 -0.2882  0.2588
  610SOL    HW2 2438   2.429   1.556   1.166  0.2738 -1.0554  1.3111
  610SOL    HW3 2439   2.492   1.541   1.030 -1.8384 -0.8726  0.2968
  610SOL    MW4 2440   2.491   1.524   1.115 -0.1620 -0.4665  0.4027
  611SOL     OW 2441   2.277   1.633   1.213  0.3749  0.3328  0.0349
  611SOL    HW2 2442   2.271   1.727   1.199 -0.8305  0.2972  0.3130
  611SOL    HW3 2443   2.189   1.600   1.194  0.2946 -0.4974  1.7687
  611SOL    MW4 2444   2.265   1.641   1.209  0.2053  0.2185  0.3004
  612SOL     OW 2445   2.262   1.913   1.167  0.1083 -0.5801 -0.1211
  612SOL    HW2 2446   2.192   1.974   1.190 -0.3712 -1.6073  1.1687
  612SOL    HW3 2447   2.259   1.909   1.071  0.0689  1.3163 -0.2089
  612SOL    MW4 2448   2.252   1.920   1.157  0.0398 -0.4654  0.0374
  613SOL     OW 2449   2.477   2.073   1.216  0.0940  0.3506  0.0487
  613SOL    HW2 2450   2.556   2.021   1.201  0.5676  1.2553 -0.6633
  613SOL    HW3 2451   2.405   2.015   1.196  0.5962 -0.2801  0.0552
  613SOL    MW4 2452   2.478   2.059   1.211  0.2227  0.3867 -0.0444
  614SOL     OW 2453   2.481   2.329   1.070  0.3536 -0.2795 -0.3275
  614SOL    HW2 2454   2.477   2.242   1.111 -0.9194 -0.3339 -0.5571
  614SOL    HW3 2455   2.508   2.311   0.980 -0.6549 -0.5071 -0.5860
  614SOL    MW4 2456   2.484   2.315   1.064  0.0526 -0.3167 -0.3919
  615SOL     OW 2457   2.264   2.463   1.184 -0.4894 -0.3350 -0.2493
  615SOL    HW2 2458   2.264   2.460   1.280 -0.3055  2.6479 -0.1143
  615SOL    HW3 2459   2.348   2.423   1.159  1.1312  2.1858  1.0141
  615SOL    MW4 2460   2.275   2.457   1.193 -0.2513  0.3911 -0.0648
  616SOL     OW 2461   2.228   2.732   1.110 -0.4344  0.0614 -0.2173
  616SOL    HW2 2462   2.228   2.638   1.128 -0.8483  0.4346  1.9591
  616SOL    HW3 2463   2.172   2.769   1.179  0.7183  2.0279 -0.3094
  616SOL    MW4 2464   2.220   2.724   1.122 -0.3370  0.3701  0.0577
  617SOL     OW 2465   2.434   2.818   1.260 -0.4444  0.0696 -0.0394
  617SOL    HW2 2466   2.423   2.786   1.350  0.2548 -1.0838 -0.3496
  617SOL    HW3 2467   2.361   2.779   1.212  0.5591 -1.3476 -0.4756
  617SOL    MW4 2468   2.423   2.808   1.266 -0.2198 -0.2696 -0.1379
  618SOL     OW 2469   2.467   3.089   1.188  0.2898 -0.0536 -0.6123
  618SOL    HW2 2470   2.393   3.136   1.227  2.4757  1.5232  1.8239
  618SOL    HW3 2471   2.452   2.998   1.212 -0.4753  0.3625  0.5592
  618SOL    MW4 2472   2.456   3.083   1.197  0.4773  0.2093 -0.1363
  619SOL     OW 2473   2.256   3.260   1.301  0.0134  0.1295 -0.1775
  619SOL    HW2 2474   2.263   3.348   1.264 -1.8611  0.5744  0.4659
  619SOL    HW3 2475   2.178   3.223   1.259 -0.9177 -0.1293  1.7086
  619SOL    MW4 2476   2.246   3.267   1.291 -0.3568  0.1541  0.1562
  620SOL     OW 2477   2.214   3.511   1.139 -0.4765 -0.1440 -0.2631
  620SOL    HW2 2478   2.298   3.556   1.152 -1.2162  1.1854  0.0899
  620SOL    HW3 2479   2.212   3.492   1.045  0.3322 -0.4041 -0.2337
  620SOL    MW4 2480   2.225   3.515   1.128 -0.4674 -0.0029 -0.2126
  621SOL     OW 2481   2.483   3.611   1.241  0.7804  0.2113  0.3389
  621SOL    HW2 2482   2.475   3.622   1.335 -0.4265  0.4921  0.2106
  621SOL    HW3 2483   2.481   3.700   1.205 -2.1870 -0.0229 -0.1872
  621SOL    MW4 2484   2.482   3.624   1.249  0.2296  0.2174  0.2526
  622SOL     OW 2485   2.504   3.875   1.153 -0.7473  0.0436  0.3018
  622SOL    HW2 2486   2.428   3.925   1.182  0.3359  1.6766  0.4042
  622SOL    HW3 2487   2.495   3.872   1.057 -0.6437  0.7339  0.2667
  622SOL    MW4 2488   2.493   3.882   1.144 -0.5907  0.3501  0.3107
  623SOL     OW 2489   2.270   4.023   1.218  0.3593 -0.1287 -0.2894
  623SOL    HW2 2490   2.278   4.105   1.169  1.4915  0.4382  0.8092
  623SOL    HW3 2491   2.182   3.992   1.198 -1.8109  3.6099  2.7683
  623SOL    MW4 2492   2.260   4.030   1.209  0.2224  0.4393  0.2590
  624SOL     OW 2493   2.250   4.289   1.088  0.4887  0.2701 -0.3330
  624SOL    HW2 2494   2.170   4.299   1.139  1.1315 -0.0945  0.7493
  624SOL    HW3 2495   2.220   4.274   0.998 -0.6474  0.1966  0.0609
  624SOL    MW4 2496   2.236   4.289   1.083  0.4236  0.2123 -0.1382
  625SOL     OW 2497   2.456   4.419   1.234  0.1442 -0.2874  0.1316
  625SOL    HW2 2498   2.384   4.369   1.197  0.5875  0.3868 -1.7156
  625SOL    HW3 2499   2.446   4.507   1.198  1.4099  0.0239  0.4893
  625SOL    MW4 2500   2.445   4.424   1.224  0.3697 -0.1574 -0.0649
  626SOL     OW 2501   2.846   4.627   1.180  0.3193 -0.2418 -0.2739
  626SOL    HW2 2502   2.860   4.536   1.203  2.0313 -0.0790 -0.6367
  626SOL    HW3 2503   2.881   4.635   1.091  0.2004  0.7646 -0.2395
  626SOL    MW4 2504   2.852   4.616   1.171  0.5295 -0.0875 -0.3172
  627SOL     OW 2505   2.672   0.146   1.318 -0.0644 -0.2191  0.1176
  627SOL    HW2 2506   2.662   0.131   1.411 -0.8248 -1.8332 -0.2115
  627SOL    HW3 2507   2.732   0.077   1.289 -1.6953 -1.1827 -0.9998
  627SOL    MW4 2508   2.679   0.135   1.326 -0.3799 -0.5592 -0.0732
  628SOL     OW 2509   2.677   0.400   1.184  0.5394 -0.0082  0.3829
  628SOL    HW2 2510   2.672   0.314   1.227  1.4536 -0.0401  0.4361
  628SOL    HW3 2511   2.604   0.449   1.221  0.5879 -0.4395  1.0723
  628SOL    MW4 2512   2.667   0.395   1.195  0.6664 -0.0693  0.4809
  629SOL     OW 2513   2.920   0.492   1.291 -0.0117 -0.1914 -0.0839
  629SOL    HW2 2514   2.936   0.573   1.242 -1.4850  0.2939  0.2139
  629SOL    HW3 2515   2.831   0.467   1.266 -1.1474  0.5508  3.0336
  629SOL    MW4 2516   2.910   0.499   1.281 -0.3559 -0.0294  0.3667
  630SOL     OW 2517   2.933   0.729   1.121  0.3007  0.1655  0.3108
  630SOL    HW2 2518   3.006   0.781   1.155 -0.7057  2.9750 -1.5393
  630SOL    HW3 2519   2.856   0.765   1.165 -0.2993 -0.5652 -0.1355
  630SOL    MW4 2520   2.932   0.741   1.131  0.0887  0.4398  0.0078
  631SOL     OW 2521   2.726   0.850   1.236  0.0807 -0.5012 -0.5685
  631SOL    HW2 2522   2.730   0.943   1.214  0.2174 -0.3807 -0.0245
  631SOL    HW3 2523   2.652   0.817   1.184 -0.4511  0.0694 -0.1820
  631SOL    MW4 2524   2.716   0.858   1.226  0.0286 -0.4100 -0.4457
  632SOL     OW 2525   2.712   1.121   1.157 -0.3405 -0.0659  0.2518
  632SOL    HW2 2526   2.783   1.184   1.170 -0.7290  0.9353 -2.1302
  632SOL    HW3 2527   2.710   1.107   1.062 -2.0383 -1.5950  0.4900
  632SOL    MW4 2528   2.721   1.128   1.146 -0.6158 -0.1355 -0.0310
  633SOL     OW 2529   2.927   1.276   1.215  0.5461  0.0761  0.2148
  633SOL    HW2 2530   2.940   1.270   1.309  1.5534  0.7155  0.1122
  633SOL    HW3 2531   2.924   1.370   1.196  0.2078 -0.0477 -0.3708
  633SOL    MW4 2532   2.928   1.287   1.225  0.6343  0.1441  0.1240
  634SOL     OW 2533   2.939   1.539   1.102 -0.4312  0.3806 -0.3039
  634SOL    HW2 2534   3.025   1.575   1.121 -0.4731  1.0369 -1.3581
  634SOL    HW3 2535   2.934   1.535   1.007 -2.1897  1.8930 -0.3123
  634SOL    MW4 2536   2.950   1.543   1.092 -0.6687  0.6667 -0.4441
  635SOL     OW 2537   2.717   1.623   1.256  0.0210 -0.0849  0.1746
  635SOL    HW2 2538   2.789   1.608   1.194 -0.3449 -1.2805  0.0142
  635SOL    HW3 2539   2.642   1.579   1.216 -0.1634 -1.0740  1.5582
  635SOL    MW4 2540   2.717   1.615   1.243 -0.0516 -0.3731  0.3359
  636SOL     OW 2541   2.723   1.908   1.176  0.4031 -0.0820 -0.2166
  636SOL    HW2 2542   2.794   1.963   1.208  1.3722  0.1657 -2.6687
  636SOL    HW3 2543   2.738   1.823   1.218  1.0990  0.4876  0.6906
  636SOL    MW4 2544   2.734   1.904   1.186  0.6228  0.0258 -0.4204
  637SOL     OW 2545   2.948   2.072   1.227  0.1562 -0.0678  0.5549
  637SOL    HW2 2546   2.964   2.074   1.322 -0.4861 -0.9235  0.6933
  637SOL    HW3 2547   2.936   2.163   1.203 -0.7286  0.0697  1.4903
  637SOL    MW4 2548   2.949   2.084   1.236 -0.0453 -0.1625  0.6966
  638SOL     OW 2549   2.911   2.321   1.107  0.4032 -0.0419 -0.4088
  638SOL    HW2 2550   2.999   2.353   1.127 -0.0534  1.7399 -1.1381
  638SOL    HW3 2551   2.852   2.380   1.155 -0.4652  0.2757 -1.8251
  638SOL    MW4 2552   2.915   2.333   1.116  0.2284  0.2351 -0.6919
  639SOL     OW 2553   2.687   2.437   1.233  0.2662  0.0208  0.5583
  639SOL    HW2 2554   2.671   2.423   1.326  0.3018  0.2986  0.6078
  639SOL    HW3 2555   2.609   2.403   1.189 -1.1145  2.6660  0.8954
  639SOL    MW4 2556   2.675   2.431   1.239  0.0887  0.4065  0.6093
  640SOL     OW 2557   2.630   2.704   1.110  0.0402  0.5637 -0.1390
  640SOL    HW2 2558   2.637   2.617   1.149 -1.1696 -0.1092 -1.4010
  640SOL    HW3 2559   2.545   2.737   1.140 -0.0200  0.8397 -0.6102
  640SOL    MW4 2560   2.620   2.697   1.119 -0.1274  0.5113 -0.3676
  641SOL     OW 2561   2.889   2.788   1.208 -0.2112  0.5154  0.3105
  641SOL    HW2 2562   2.882   2.804   1.302 -1.8931 -1.8370  0.6444
  641SOL    HW3 2563   2.798   2.780   1.178  0.2876  1.9069 -1.6548
  641SOL    MW4 2564   2.876   2.789   1.217 -0.3673  0.3886  0.0952
  642SOL     OW 2565   2.926   3.054   1.148  0.2320 -0.7383  0.1072
  642SOL    HW2 2566   2.941   2.961   1.161  0.6422 -0.9559 -1.8622
  642SOL    HW3 2567   2.952   3.071   1.058 -1.0247  1.0351  0.0437
  642SOL    MW4 2568   2.932   3.044   1.138  0.1203 -0.5330 -0.1610
  643SOL     OW 2569   2.712   3.211   1.258  0.0885 -0.3858  0.0750
  643SOL    HW2 2570   2.781   3.162   1.212 -1.0657 -0.1187 -2.0082
  643SOL    HW3 2571   2.630   3.175   1.223 -0.7977  1.9799 -0.3585
  643SOL    MW4 2572   2.710   3.199   1.247 -0.1807 -0.0385 -0.2570
  644SOL     OW 2573   2.736   3.459   1.208 -0.0080  0.4645 -0.1880
  644SOL    HW2 2574   2.726   3.368   1.235  0.0102  0.3856 -0.4454
  644SOL    HW3 2575   2.651   3.499   1.227 -1.0013 -0.3109 -2.7521
  644SOL    MW4 2576   2.723   3.452   1.214 -0.1366  0.3518 -0.5603
  645SOL     OW 2577   2.928   3.658   1.234 -0.0133 -0.6676  0.3433
  645SOL    HW2 2578   3.019   3.627   1.234  0.3392  0.2418  2.7797
  645SOL    HW3 2579   2.877   3.580   1.215  1.1966 -1.5913  0.7490
  645SOL    MW4 2580   2.934   3.643   1.232  0.1929 -0.6695  0.7183
  646SOL     OW 2581   2.948   3.928   1.156 -0.0350  0.1070  0.3144
  646SOL    HW2 2582   3.037   3.953   1.178  0.2403 -0.9248  0.4172
  646SOL    HW3 2583   2.935   3.844   1.201 -0.6246 -0.3571 -0.7093
  646SOL    MW4 2584   2.958   3.920   1.165 -0.0765 -0.0903  0.1929
  647SOL     OW 2585   2.718   3.996   1.270 -0.1062  0.3345 -0.1145
  647SOL    HW2 2586   2.795   3.971   1.220  1.0701  4.7951 -0.7930
  647SOL    HW3 2587   2.645   3.949   1.229  1.5522  0.0482 -2.7719
  647SOL    MW4 2588   2.718   3.987   1.258  0.2678  0.8853 -0.5547
  648SOL     OW 2589   2.702   4.257   1.173 -0.0584 -0.0715  0.3256
  648SOL    HW2 2590   2.690   4.170   1.210  0.9824  1.0606  3.4901
  648SOL    HW3 2591   2.617   4.299   1.183 -0.2017 -0.2735 -0.0178
  648SOL    MW4 2592   2.690   4.251   1.179  0.0600  0.0512  0.6978
  649SOL     OW 2593   2.903   4.377   1.296  0.0850  0.4255  0.0488
  649SOL    HW2 2594   2.978   4.336   1.254  0.9221  2.5720 -0.6073
  649SOL    HW3 2595   2.827   4.336   1.255  0.8993  0.3135 -1.3792
  649SOL    MW4 2596   2.903   4.366   1.285  0.3029  0.6939 -0.2261
  650SOL     OW 2597   3.314   4.649   1.066  0.0730  0.0864 -0.5348
  650SOL    HW2 2598   3.390   4.692   1.107  0.8768 -0.2071 -1.6811
  650SOL    HW3 2599   3.238   4.686   1.111  0.8032  1.8979 -0.7305
  650SOL    MW4 2600   3.314   4.660   1.077  0.2754  0.2867 -0.7118
  651SOL     OW 2601   3.094   0.098   1.237  0.1086 -0.2305  0.4636
  651SOL    HW2 2602   3.126   0.086   1.327  0.4449 -0.6279  0.2911
  651SOL    HW3 2603   3.002   0.071   1.241  0.0188  0.1024  0.7673
  651SOL    MW4 2604   3.086   0.093   1.249  0.1411 -0.2390  0.4809
  652SOL     OW 2605   3.103   0.352   1.140  0.0196  0.1933 -0.3437
  652SOL    HW2 2606   3.109   0.265   1.178  0.9668  0.7644  0.8289
  652SOL    HW3 2607   3.035   0.396   1.190  1.1672  0.8984  0.6153
  652SOL    MW4 2608   3.095   0.346   1.151  0.2960  0.3617 -0.0624
  653SOL     OW 2609   3.348   0.459   1.227  0.3673  0.1240  0.1908
  653SOL    HW2 2610   3.356   0.549   1.195  0.4991  0.0265 -0.0467
  653SOL    HW3 2611   3.260   0.431   1.200  0.0438  0.4340  0.9006
  653SOL    MW4 2612   3.337   0.467   1.219  0.3420  0.1520  0.2531
  654SOL     OW 2613   3.379   0.727   1.149  0.0028  0.0731 -0.3025
  654SOL    HW2 2614   3.312   0.793   1.167  0.4019  0.4809 -0.2914
  654SOL    HW3 2615   3.397   0.736   1.055  2.0084  1.8634  0.2023
  654SOL    MW4 2616   3.372   0.737   1.139  0.3201  0.3631 -0.2344
  655SOL     OW 2617   3.161   0.877   1.221  0.2616  0.0338  0.1724
  655SOL    HW2 2618   3.148   0.890   1.314 -0.8734 -0.7093  0.1315
  655SOL    HW3 2619   3.170   0.965   1.185 -0.8824  0.3972  0.7587
  655SOL    MW4 2620   3.161   0.890   1.228 -0.0391 -0.0163  0.2444
  656SOL     OW 2621   3.145   1.136   1.108  0.6723 -0.1767 -0.0413
  656SOL    HW2 2622   3.224   1.188   1.125 -0.5771  1.8163 -0.2252
  656SOL    HW3 2623   3.075   1.182   1.153 -0.5250 -1.5713 -0.4283
  656SOL    MW4 2624   3.146   1.149   1.116  0.3495 -0.0977 -0.1166
  657SOL     OW 2625   3.381   1.245   1.195  0.1055  0.1174 -0.1784
  657SOL    HW2 2626   3.391   1.250   1.290 -0.6419 -0.8944 -0.0326
  657SOL    HW3 2627   3.387   1.335   1.165 -2.2810  0.7465  1.1050
  657SOL    MW4 2628   3.383   1.257   1.203 -0.3080  0.0669  0.0102
  658SOL     OW 2629   3.388   1.504   1.101 -0.2705  0.4683  0.0120
  658SOL    HW2 2630   3.467   1.551   1.128  0.4635 -1.3762  1.1193
  658SOL    HW3 2631   3.316   1.560   1.132  0.5816  0.8050  1.4446
  658SOL    MW4 2632   3.389   1.518   1.109 -0.0612  0.2694  0.3471
  659SOL     OW 2633   3.178   1.654   1.175 -0.3677  0.2744  0.2951
  659SOL    HW2 2634   3.162   1.652   1.269  3.9423  1.5993  1.1859
  659SOL    HW3 2635   3.167   1.746   1.151 -1.4402 -0.0599 -0.5189
  659SOL    MW4 2636   3.174   1.666   1.184  0.0594  0.4051  0.3053
  660SOL     OW 2637   3.181   1.926   1.139 -0.0904 -0.1957  0.0852
  660SOL    HW2 2638   3.262   1.973   1.159 -0.1919  1.1774 -2.4209
  660SOL    HW3 2639   3.114   1.970   1.192  0.3610  0.4186  0.1565
  660SOL    MW4 2640   3.183   1.938   1.149 -0.0442  0.0665 -0.2361
  661SOL     OW 2641   3.396   2.062   1.222 -0.4678  0.1821 -0.6121
  661SOL    HW2 2642   3.477   2.010   1.216 -1.6638 -1.8863  0.5840
  661SOL    HW3 2643   3.412   2.138   1.166  2.0563 -0.5220 -0.9109
  661SOL    MW4 2644   3.409   2.065   1.214 -0.2926 -0.1837 -0.4937
  662SOL     OW 2645   3.384   2.314   1.044  0.3010 -0.3104  0.2545
  662SOL    HW2 2646   3.452   2.370   1.081 -0.3984  0.4174  0.4589
  662SOL    HW3 2647   3.303   2.343   1.086 -0.0207 -1.7486  0.6646
  662SOL    MW4 2648   3.382   2.325   1.054  0.1663 -0.4041  0.3356
  663SOL     OW 2649   3.160   2.423   1.183  0.3756  0.0509 -0.1663
  663SOL    HW2 2650   3.173   2.426   1.278 -0.6979  0.8685 -0.0339
  663SOL    HW3 2651   3.133   2.512   1.160  0.3067 -0.2340 -1.1886
  663SOL    MW4 2652   3.158   2.435   1.193  0.2249  0.1212 -0.2837
  664SOL     OW 2653   3.118   2.671   1.085  0.2131 -0.1026 -0.0340
  664SOL    HW2 2654   3.042   2.718   1.118  0.7764  1.3541 -0.7826
  664SOL    HW3 2655   3.128   2.700   0.995  2.2942  0.5603  0.3681
  664SOL    MW4 2656   3.110   2.681   1.078  0.5620  0.1771 -0.0797
  665SOL     OW 2657   3.351   2.803   1.213  0.1612 -0.3454 -0.5685
  665SOL    HW2 2658   3.341   2.897   1.198  0.1182 -0.1458  0.6997
  665SOL    HW3 2659   3.276   2.763   1.168 -0.4536  0.3207 -0.1397
  665SOL    MW4 2660   3.340   2.810   1.205  0.0744 -0.2312 -0.3446
  666SOL     OW 2661   3.347   3.069   1.163 -0.1676  0.1531  0.0506
  666SOL    HW2 2662   3.431   3.111   1.179 -0.3703  0.8131 -0.5487
  666SOL    HW3 2663   3.284   3.120   1.215 -0.0382 -1.0422  1.3978
  666SOL    MW4 2664   3.350   3.082   1.172 -0.1772  0.0825  0.1492
  667SOL     OW 2665   3.144   3.215   1.284  0.3058 -0.1189  0.2990
  667SOL    HW2 2666   3.142   3.306   1.253  1.5985 -0.5076 -0.9881
  667SOL    HW3 2667   3.070   3.174   1.240  0.8208 -0.1289 -0.5714
  667SOL    MW4 2668   3.134   3.222   1.274  0.5443 -0.1715  0.0143
  668SOL     OW 2669   3.163   3.492   1.202  0.3962 -0.2678 -0.1365
  668SOL    HW2 2670   3.250   3.530   1.212  0.4550 -0.6004  0.6646
  668SOL    HW3 2671   3.150   3.486   1.108  0.9597  0.4302 -0.2584
  668SOL    MW4 2672   3.173   3.496   1.191  0.4783 -0.2196 -0.0469
  669SOL     OW 2673   3.387   3.640   1.219  0.1612 -0.2195 -0.7801
  669SOL    HW2 2674   3.385   3.638   1.315  0.1850 -1.3575 -0.8043
  669SOL    HW3 2675   3.452   3.574   1.195 -1.1354 -1.2090 -1.6370
  669SOL    MW4 2676   3.396   3.631   1.229 -0.0067 -0.5002 -0.8963
  670SOL     OW 2677   3.337   3.840   1.039 -0.1598 -0.3524 -0.0824
  670SOL    HW2 2678   3.290   3.890   1.106  0.0421 -0.6241  0.2675
  670SOL    HW3 2679   3.357   3.756   1.082 -1.5133 -1.1780 -1.0447
  670SOL    MW4 2680   3.334   3.836   1.054 -0.3117 -0.4972 -0.1632
  671SOL     OW 2681   3.228   4.008   1.210 -0.1121 -0.1171 -0.1235
  671SOL    HW2 2682   3.222   4.017   1.305  0.6707  0.2371 -0.1010
  671SOL    HW3 2683   3.205   4.095   1.176 -1.1799 -0.4584 -0.3008
  671SOL    MW4 2684   3.224   4.021   1.218 -0.1497 -0.1154 -0.1439
  672SOL     OW 2685   3.102   4.249   1.137  0.2653  0.0413 -0.4090
  672SOL    HW2 2686   3.169   4.317   1.144  2.6523 -2.1021 -1.4316
  672SOL    HW3 2687   3.084   4.244   1.043  0.4983 -1.1028 -0.3925
  672SOL    MW4 2688   3.109   4.257   1.125  0.6110 -0.3924 -0.5418
  673SOL     OW 2689   3.309   4.409   1.188 -0.1557  0.4021 -0.3006
  673SOL    HW2 2690   3.373   4.352   1.145  0.9359  0.1985  1.5848
  673SOL    HW3 2691   3.318   4.493   1.143 -0.1123 -0.2110 -1.4882
  673SOL    MW4 2692   3.318   4.413   1.176 -0.0059  0.2944 -0.2085
  674SOL     OW 2693   3.788   4.652   1.141  0.1845 -0.0748  0.0249
  674SOL    HW2 2694   3.771   4.558   1.148 -0.6659  0.1376  0.9673
  674SOL    HW3 2695   3.772   4.673   1.049  2.0411 -1.1610 -0.5787
  674SOL    MW4 2696   3.784   4.642   1.130  0.3172 -0.1901  0.0696
  675SOL     OW 2697   3.537   0.098   1.221  0.3952 -0.7632 -0.3617
  675SOL    HW2 2698   3.538   0.188   1.189  0.2384 -0.1497  1.3425
  675SOL    HW3 2699   3.613   0.057   1.178 -0.0425 -0.0916 -1.8251
  675SOL    MW4 2700   3.547   0.105   1.211  0.3168 -0.5936 -0.3299
  676SOL     OW 2701   3.571   0.355   1.096  0.0460 -0.1091  0.5763
  676SOL    HW2 2702   3.649   0.398   1.130  0.0570  0.7080 -0.4487
  676SOL    HW3 2703   3.499   0.396   1.143  0.1257  0.3631  0.2947
  676SOL    MW4 2704   3.572   0.366   1.107  0.0580  0.0610  0.4039
  677SOL     OW 2705   3.813   0.461   1.200  0.6308 -0.1256  0.2952
  677SOL    HW2 2706   3.895   0.419   1.172  1.5689  1.3644  0.7578
  677SOL    HW3 2707   3.822   0.552   1.172  0.7975  0.9999  3.7658
  677SOL    MW4 2708   3.825   0.468   1.192  0.7766  0.2195  0.8141
  678SOL     OW 2709   3.839   0.729   1.135  0.3508  0.0501  0.3668
  678SOL    HW2 2710   3.922   0.760   1.170  0.6374 -1.4535  1.0600
  678SOL    HW3 2711   3.773   0.781   1.181  0.7920 -0.8332  2.0669
  678SOL    MW4 2712   3.841   0.740   1.146  0.4468 -0.2649  0.6826
  679SOL     OW 2713   3.618   0.867   1.212  0.4470 -0.3293 -0.2304
  679SOL    HW2 2714   3.617   0.939   1.148 -0.9425 -0.0753  0.0648
  679SOL    HW3 2715   3.534   0.823   1.199  0.5566 -0.8414  0.7913
  679SOL    MW4 2716   3.607   0.871   1.202  0.2781 -0.3634 -0.0566
  680SOL     OW 2717   3.593   1.113   1.068 -0.2318 -0.2325  0.2356
  680SOL    HW2 2718   3.677   1.148   1.097  0.3005 -0.4607 -0.9748
  680SOL    HW3 2719   3.528   1.164   1.115  0.5867 -0.0690  1.2131
  680SOL    MW4 2720   3.596   1.124   1.078 -0.0536 -0.2410  0.2049
  681SOL     OW 2721   3.802   1.265   1.185  0.6442  0.4079 -0.2258
  681SOL    HW2 2722   3.804   1.275   1.280 -1.2714  1.5609 -0.2763
  681SOL    HW3 2723   3.803   1.354   1.151  4.4790 -0.0145 -1.4361
  681SOL    MW4 2724   3.802   1.278   1.193  0.8974  0.5043 -0.3922
  682SOL     OW 2725   3.838   1.541   1.065 -0.1988  0.2677  0.2255
  682SOL    HW2 2726   3.926   1.577   1.070  0.2414 -0.4964 -1.4997
  682SOL    HW3 2727   3.812   1.553   0.973 -1.4386 -0.5183  0.4545
  682SOL    MW4 2728   3.846   1.547   1.053 -0.3043  0.0632  0.0281
  683SOL     OW 2729   3.625   1.636   1.196  0.3841  0.1030  0.3933
  683SOL    HW2 2730   3.632   1.730   1.178  0.3493  0.4638  2.1738
  683SOL    HW3 2731   3.704   1.598   1.156 -0.9648  0.4826 -2.7327
  683SOL    MW4 2732   3.637   1.643   1.189  0.2015  0.2007  0.2158
  684SOL     OW 2733   3.604   1.912   1.131  0.0829  0.1818  0.3532
  684SOL    HW2 2734   3.687   1.953   1.157  0.3339  0.2435 -0.5400
  684SOL    HW3 2735   3.604   1.915   1.036 -0.3530 -0.9997  0.3050
  684SOL    MW4 2736   3.615   1.918   1.122  0.0585  0.0340  0.2290
  685SOL     OW 2737   3.836   2.072   1.178 -0.1466  0.5029 -0.2273
  685SOL    HW2 2738   3.836   2.046   1.270 -0.2970  4.1511  0.8796
  685SOL    HW3 2739   3.908   2.023   1.139  0.3480 -0.5860  1.9700
  685SOL    MW4 2740   3.845   2.062   1.185 -0.1012  0.8405  0.2087
  686SOL     OW 2741   3.875   2.315   1.080  0.0122  0.8397  0.1287
  686SOL    HW2 2742   3.941   2.353   1.138  1.4947  0.0545 -1.0229
  686SOL    HW3 2743   3.862   2.227   1.115  0.0419  0.7724 -0.0332
  686SOL    MW4 2744   3.882   2.308   1.093  0.2117  0.7272 -0.0446
  687SOL     OW 2745   3.619   2.446   1.137 -0.0559 -0.3877  0.2050
  687SOL    HW2 2746   3.600   2.413   1.225 -0.3880  0.5249  0.4785
  687SOL    HW3 2747   3.705   2.410   1.115  0.4140  0.1035  1.2478
  687SOL    MW4 2748   3.628   2.437   1.146 -0.0377 -0.2025  0.3786
  688SOL     OW 2749   3.599   2.712   1.076 -0.0312 -0.5525 -0.0264
  688SOL    HW2 2750   3.595   2.617   1.090  0.6765 -0.5079  0.5261
  688SOL    HW3 2751   3.518   2.745   1.114 -1.0207 -1.0944 -1.6231
  688SOL    MW4 2752   3.588   2.704   1.083 -0.0684 -0.6181 -0.1642
  689SOL     OW 2753   3.798   2.846   1.219 -0.1134 -0.0178  0.5361
  689SOL    HW2 2754   3.802   2.826   1.313 -0.0668 -0.9516  0.3424
  689SOL    HW3 2755   3.724   2.795   1.187  0.0993  0.0134 -0.0094
  689SOL    MW4 2756   3.789   2.837   1.227 -0.0792 -0.1369  0.4386
  690SOL     OW 2757   3.828   3.090   1.094  0.0985  0.0129  0.0800
  690SOL    HW2 2758   3.829   3.000   1.127  1.4489  0.0468  0.1708
  690SOL    HW3 2759   3.850   3.082   1.001 -0.0643  0.2190  0.0229
  690SOL    MW4 2760   3.831   3.077   1.086  0.2552  0.0446  0.0845
  691SOL     OW 2761   3.598   3.173   1.226  0.0612 -0.2988 -0.1988
  691SOL    HW2 2762   3.587   3.267   1.210 -0.1604 -0.6929 -2.5357
  691SOL    HW3 2763   3.678   3.151   1.177  0.1770 -1.2994  0.4454
  691SOL    MW4 2764   3.607   3.183   1.217  0.0473 -0.4828 -0.4222
  692SOL     OW 2765   3.574   3.438   1.139 -0.1107  0.0529  0.1150
  692SOL    HW2 2766   3.650   3.486   1.171  0.7586 -1.9694  1.1580
  692SOL    HW3 2767   3.589   3.429   1.045 -1.8155  4.4832 -0.6864
  692SOL    MW4 2768   3.586   3.443   1.131 -0.2209  0.3706  0.1469
  693SOL     OW 2769   3.797   3.597   1.192  0.1273 -0.2349 -0.1360
  693SOL    HW2 2770   3.800   3.625   1.283 -1.7906 -0.0496 -0.1094
  693SOL    HW3 2771   3.818   3.677   1.142 -0.4620  0.0683  0.0949
  693SOL    MW4 2772   3.801   3.612   1.197 -0.2035 -0.1705 -0.1020
  694SOL     OW 2773   3.823   3.845   1.053 -0.1938  0.0265  0.2763
  694SOL    HW2 2774   3.754   3.905   1.081  1.1943  2.1044 -0.6614
  694SOL    HW3 2775   3.791   3.808   0.970 -0.9662 -0.4307  0.7671
  694SOL    MW4 2776   3.809   3.848   1.046 -0.1126  0.2404  0.2173
  695SOL     OW 2777   3.585   3.963   1.157 -0.4557 -0.0103  0.1628
  695SOL    HW2 2778   3.574   3.971   1.251 -1.1373 -0.9301  0.1648
  695SOL    HW3 2779   3.508   3.915   1.128  0.6822 -1.3886 -0.6253
  695SOL    MW4 2780   3.573   3.958   1.165 -0.3955 -0.3135  0.0591
  696SOL     OW 2781   3.518   4.256   1.091 -0.5208  0.4268  0.1871
  696SOL    HW2 2782   3.530   4.168   1.126 -0.5688  0.2029 -0.3505
  696SOL    HW3 2783   3.511   4.243   0.996 -1.9329  0.8570  0.2265
  696SOL    MW4 2784   3.519   4.243   1.083 -0.7134  0.4540  0.1214
  697SOL     OW 2785   3.762   4.378   1.192 -0.3879 -0.2321 -0.3656
  697SOL    HW2 2786   3.744   4.388   1.285  0.5178  0.0276 -0.2234
  697SOL    HW3 2787   3.696   4.314   1.163 -0.7413 -0.2368  0.4220
  697SOL    MW4 2788   3.751   4.371   1.200 -0.3150 -0.1984 -0.2429
  698SOL     OW 2789   4.271   4.592   1.182 -0.0726  0.0465  0.0491
  698SOL    HW2 2790   4.281   4.503   1.215 -0.2362 -0.1357 -0.3928
  698SOL    HW3 2791   4.177   4.610   1.189  0.1254  0.6440  1.3185
  698SOL    MW4 2792   4.260   4.583   1.187 -0.0680  0.1013  0.1583
  699SOL     OW 2793   4.027   0.081   1.199 -0.1452  0.0676 -0.0406
  699SOL    HW2 2794   4.034   0.088   1.294 -1.6324  0.6737  0.0446
  699SOL    HW3 2795   3.942   0.040   1.185  0.2506 -0.3944 -1.1030
  699SOL    MW4 2796   4.017   0.077   1.210 -0.2892  0.0866 -0.1696
  700SOL     OW 2797   4.057   0.368   1.110  0.4711  0.0032  0.5406
  700SOL    HW2 2798   4.046   0.273   1.114 -1.0014  0.1420 -0.0129
  700SOL    HW3 2799   4.060   0.387   1.016  1.3156  0.4429  0.6587
  700SOL    MW4 2800   4.056   0.358   1.098  0.3882  0.0795  0.4831
  701SOL     OW 2801   4.288   0.495   1.224  0.2481  0.3875 -0.0798
  701SOL    HW2 2802   4.288   0.497   1.320  0.7878  1.7236 -0.0941
  701SOL    HW3 2803   4.208   0.448   1.201 -1.3446  2.4433  1.0127
  701SOL    MW4 2804   4.277   0.489   1.234  0.1092  0.8350  0.0625
  702SOL     OW 2805   4.273   0.764   1.113  0.1807 -0.3010 -0.0079
  702SOL    HW2 2806   4.274   0.672   1.137 -0.0156 -0.4259 -0.4703
  702SOL    HW3 2807   4.249   0.765   1.020 -1.6472  0.2980  0.4396
  702SOL    MW4 2808   4.270   0.752   1.104 -0.0864 -0.2384 -0.0099
  703SOL     OW 2809   4.039   0.905   1.233  0.2950 -0.2840 -0.6138
  703SOL    HW2 2810   4.047   0.923   1.326  0.2879  0.6254 -0.7805
  703SOL    HW3 2811   4.125   0.872   1.207  0.9159  1.3175 -0.6667
  703SOL    MW4 2812   4.051   0.903   1.242  0.3760  0.0473 -0.6427
  704SOL     OW 2813   4.052   1.160   1.102 -0.1903  0.0073  0.4282
  704SOL    HW2 2814   4.049   1.068   1.127 -1.0072 -0.9203 -2.7859
  704SOL    HW3 2815   3.965   1.194   1.125 -0.0280 -0.1335  1.2529
  704SOL    MW4 2816   4.040   1.152   1.108 -0.2767 -0.1337  0.1130
  705SOL     OW 2817   4.275   1.294   1.207  0.2531 -0.1961 -0.0386
  705SOL    HW2 2818   4.274   1.279   1.301 -0.6359 -0.0387 -0.0209
  705SOL    HW3 2819   4.188   1.268   1.177  0.2722  0.4686 -0.7000
  705SOL    MW4 2820   4.264   1.289   1.215  0.1383 -0.0876 -0.1235
  706SOL     OW 2821   4.304   1.535   1.080  0.0991 -0.0813 -0.0180
  706SOL    HW2 2822   4.276   1.450   1.115 -1.3727  1.0035  1.4680
  706SOL    HW3 2823   4.379   1.560   1.134 -0.8544  0.5981  1.0038
  706SOL    MW4 2824   4.310   1.527   1.092 -0.2209  0.1515  0.3128
  707SOL     OW 2825   4.049   1.681   1.176  0.0480 -0.1465 -0.0883
  707SOL    HW2 2826   4.057   1.681   1.271 -0.3170  2.8055 -0.0185
  707SOL    HW3 2827   4.133   1.646   1.146  0.6052 -0.0465  1.2954
  707SOL    MW4 2828   4.061   1.676   1.185  0.0733  0.2562  0.1035
  708SOL     OW 2829   4.047   1.933   1.078  0.2182 -0.3564  0.1204
  708SOL    HW2 2830   4.049   1.841   1.104  0.7862 -0.5258 -0.5099
  708SOL    HW3 2831   4.059   1.931   0.983  1.5765  0.4366  0.2633
  708SOL    MW4 2832   4.049   1.921   1.069  0.4724 -0.2741  0.0561
  709SOL     OW 2833   4.304   2.050   1.214 -0.7022 -0.3826  0.1560
  709SOL    HW2 2834   4.326   2.141   1.190 -0.8277 -0.1789  0.8090
  709SOL    HW3 2835   4.228   2.029   1.161  0.3173 -0.6706 -1.2207
  709SOL    MW4 2836   4.297   2.060   1.204 -0.5843 -0.3937  0.0605
  710SOL     OW 2837   4.327   2.332   1.130 -0.0837 -0.5761  0.3041
  710SOL    HW2 2838   4.248   2.384   1.145 -0.0884 -0.7243  0.7959
  710SOL    HW3 2839   4.323   2.309   1.037 -2.2817 -3.3076  1.0293
  710SOL    MW4 2840   4.316   2.336   1.119 -0.3743 -0.9561  0.4647
  711SOL     OW 2841   4.073   2.449   1.219 -0.1851  0.4248 -0.4022
  711SOL    HW2 2842   4.050   2.447   1.312  0.3083  2.3244 -0.2251
  711SOL    HW3 2843   4.054   2.539   1.192  0.1303  0.0099 -2.0233
  711SOL    MW4 2844   4.067   2.461   1.228 -0.0784  0.6207 -0.5927
  712SOL     OW 2845   4.023   2.705   1.115 -0.2528  0.8136  0.2115
  712SOL    HW2 2846   3.942   2.755   1.131  0.5047  2.4087 -0.7930
  712SOL    HW3 2847   4.019   2.681   1.023  0.8911  1.7807 -0.0992
  712SOL    MW4 2848   4.012   2.709   1.105 -0.0019  1.1517  0.0380
  713SOL     OW 2849   4.278   2.807   1.187  0.2488 -0.4071  0.4205
  713SOL    HW2 2850   4.272   2.897   1.157 -0.3326 -0.5036  0.2322
  713SOL    HW3 2851   4.196   2.766   1.157  0.9448 -1.2540 -0.3774
  713SOL    MW4 2852   4.267   2.813   1.179  0.2639 -0.5315  0.2904
  714SOL     OW 2853   4.312   3.078   1.082  0.4291 -0.2210 -0.7550
  714SOL    HW2 2854   4.236   3.135   1.086 -0.3140 -1.2379 -0.1327
  714SOL    HW3 2855   4.335   3.075   0.989 -0.5547 -0.2439 -1.0021
  714SOL    MW4 2856   4.305   3.085   1.070  0.2012 -0.3582 -0.7055
  715SOL     OW 2857   4.050   3.198   1.206 -0.5630 -0.2588 -0.2373
  715SOL    HW2 2858   4.038   3.188   1.301  0.1821  0.5326 -0.0565
  715SOL    HW3 2859   3.975   3.152   1.168 -0.2477 -1.5760  0.7018
  715SOL    MW4 2860   4.038   3.190   1.214 -0.4231 -0.3282 -0.0895
  716SOL     OW 2861   4.048   3.474   1.143 -0.1317  0.4788  0.8140
  716SOL    HW2 2862   4.043   3.387   1.183 -0.4683  0.2110  0.1933
  716SOL    HW3 2863   3.960   3.510   1.151  0.0309  0.7973  1.1526
  716SOL    MW4 2864   4.036   3.467   1.149 -0.1547  0.4855  0.7768
  717SOL     OW 2865   4.295   3.600   1.210 -0.0833  0.3414 -0.2070
  717SOL    HW2 2866   4.220   3.556   1.169  0.9416 -0.7561 -0.9551
  717SOL    HW3 2867   4.371   3.568   1.161  0.9337  0.9570  0.9374
  717SOL    MW4 2868   4.295   3.590   1.198  0.1861  0.2778 -0.1547
  718SOL     OW 2869   4.242   3.886   1.190  0.0517 -0.1535 -0.3298
  718SOL    HW2 2870   4.158   3.918   1.223  0.0189  0.4503 -0.9860
  718SOL    HW3 2871   4.238   3.791   1.200  0.5380  0.0708  2.6158
  718SOL    MW4 2872   4.230   3.878   1.196  0.1115 -0.0443 -0.0278
  719SOL     OW 2873   3.988   3.949   1.239  0.0364 -0.5688  0.0056
  719SOL    HW2 2874   3.983   4.042   1.218  2.7111 -0.2024  0.8104
  719SOL    HW3 2875   3.943   3.906   1.166  0.5925  1.2414 -1.4544
  719SOL    MW4 2876   3.981   3.956   1.226  0.4626 -0.2816 -0.0808
  720SOL     OW 2877   3.976   4.210   1.155  0.4664  0.0374 -0.3225
  720SOL    HW2 2878   3.917   4.280   1.184 -0.1843 -0.9254  0.7243
  720SOL    HW3 2879   3.983   4.222   1.061 -0.3309  0.9874 -0.2688
  720SOL    MW4 2880   3.969   4.221   1.147  0.2754  0.0357 -0.1773
  721SOL     OW 2881   4.212   4.321   1.290 -0.2002 -0.1971  0.5637
  721SOL    HW2 2882   4.134   4.273   1.260 -0.2067  1.3173 -2.0226
  721SOL    HW3 2883   4.284   4.281   1.240 -0.3430  3.0767 -2.4093
  721SOL    MW4 2884   4.211   4.309   1.279 -0.2199  0.4347 -0.1698
  722SOL     OW 2885   0.224   4.620   1.637 -0.2276  0.4811 -0.1416
  722SOL    HW2 2886   0.293   4.682   1.613 -0.8743  1.6650  0.9744
  722SOL    HW3 2887   0.143   4.662   1.606 -0.5648 -0.3348 -0.3724
  722SOL    MW4 2888   0.222   4.634   1.629 -0.3574  0.5297 -0.0248
  723SOL     OW 2889   0.005   0.089   1.535  0.5546  0.3604  0.1999
  723SOL    HW2 2890  -0.073   0.044   1.568  1.2024 -0.9341  0.0116
  723SOL    HW3 2891  -0.006   0.088   1.440 -0.3660  2.3485  0.2704
  723SOL    MW4 2892  -0.007   0.083   1.527  0.5186  0.4519  0.1844
  724SOL     OW 2893   0.017   0.369   1.584  0.0981 -0.1904  0.7545
  724SOL    HW2 2894   0.020   0.375   1.680  0.0525 -2.5311  0.9217
  724SOL    HW3 2895   0.019   0.275   1.565 -0.6815  0.2118 -1.5211
  724SOL    MW4 2896   0.017   0.357   1.594 -0.0108 -0.4461  0.4763
  725SOL     OW 2897   0.217   0.526   1.481  0.2321  0.4851 -0.0481
  725SOL    HW2 2898   0.148   0.465   1.506  1.1732 -0.8804 -0.7325
  725SOL    HW3 2899   0.219   0.522   1.385  0.8510  0.9686 -0.0628
  725SOL    MW4 2900   0.208   0.518   1.471  0.4379  0.3687 -0.1404
  726SOL     OW 2901   0.221   0.755   1.640  0.0874 -0.2680 -0.5203
  726SOL    HW2 2902   0.288   0.807   1.595 -1.3164  1.5469 -0.5401
  726SOL    HW3 2903   0.218   0.673   1.590  1.5885  0.0205 -1.1229
  726SOL    MW4 2904   0.230   0.751   1.627  0.1003  0.0095 -0.6024
  727SOL     OW 2905   4.484   0.883   1.517 -0.2286 -0.0294  0.6339
  727SOL    HW2 2906   4.502   0.977   1.531 -1.4027  0.3335 -0.2570
  727SOL    HW3 2907   4.559   0.839   1.556  0.6185  1.3142  0.5697
  727SOL    MW4 2908   4.496   0.890   1.524 -0.2718  0.1957  0.5078
  728SOL     OW 2909   0.016   1.164   1.592 -0.7079  0.1035  0.1881
  728SOL    HW2 2910   0.036   1.165   1.686 -1.7664 -3.4818  0.5243
  728SOL    HW3 2911   0.093   1.205   1.551  0.7428 -0.2699  2.4577
  728SOL    MW4 2912   0.029   1.170   1.599 -0.6561 -0.4188  0.5319
  729SOL     OW 2913   0.237   1.278   1.476 -0.5696  0.0380  0.1840
  729SOL    HW2 2914   0.250   1.362   1.519 -2.9558  0.0915  0.8803
  729SOL    HW3 2915   0.198   1.301   1.391 -2.5323 -0.3974  0.9390
  729SOL    MW4 2916   0.233   1.292   1.470 -1.1434 -0.0124  0.3755
  730SOL     OW 2917   0.282   1.558   1.561  0.2566  0.0583 -0.1633
  730SOL    HW2 2918   0.268   1.566   1.655  1.0551 -1.2050  0.0717
  730SOL    HW3 2919   0.197   1.581   1.522  0.0769  1.0848  0.8339
  730SOL    MW4 2920   0.269   1.562   1.568  0.3382  0.0271 -0.0008
  731SOL     OW 2921   0.030   1.641   1.500  0.2386  0.7596 -0.1583
  731SOL    HW2 2922   0.033   1.732   1.527  1.6770  0.5908  0.2940
  731SOL    HW3 2923   0.028   1.644   1.405  0.6075  1.2609 -0.1510
  731SOL    MW4 2924   0.030   1.653   1.491  0.4770  0.8035 -0.0977
  732SOL     OW 2925   0.014   1.907   1.597 -0.2032 -0.2844  0.3071
  732SOL    HW2 2926   0.014   1.916   1.693 -0.0884  0.5925  0.2293
  732SOL    HW3 2927  -0.060   1.960   1.568  1.2941  1.5388 -0.2734
  732SOL    MW4 2928   0.004   1.915   1.606  0.0095  0.0718  0.2203
  733SOL     OW 2929   0.226   2.045   1.464  0.3769  0.5621  0.3248
  733SOL    HW2 2930   0.149   1.992   1.487  0.8696 -0.8861 -1.2462
  733SOL    HW3 2931   0.231   2.039   1.368  1.5493  1.9254  0.2883
  733SOL    MW4 2932   0.217   2.037   1.454  0.5966  0.5509  0.1127
  734SOL     OW 2933   0.161   2.292   1.559 -0.1006  0.0039 -0.0572
  734SOL    HW2 2934   0.173   2.296   1.654 -1.1080 -1.6264  0.1741
  734SOL    HW3 2935   0.191   2.204   1.535 -1.6414 -0.3007 -0.9400
  734SOL    MW4 2936   0.166   2.281   1.569 -0.4368 -0.2514 -0.1431
  735SOL     OW 2937   4.447   2.464   1.515  0.4414  0.4231 -0.9133
  735SOL    HW2 2938   4.372   2.408   1.538  0.7637  1.1437  2.0959
  735SOL    HW3 2939   4.523   2.406   1.521  0.5546  0.6685  0.2391
  735SOL    MW4 2940   4.447   2.449   1.519  0.4989  0.5506 -0.3642
  736SOL     OW 2941   4.406   2.718   1.577 -0.4990 -0.4110  0.3748
  736SOL    HW2 2942   4.329   2.753   1.533  1.7087  0.5101 -2.9360
  736SOL    HW3 2943   4.409   2.626   1.551 -0.4302 -0.4228  0.4215
  736SOL    MW4 2944   4.397   2.710   1.568 -0.1987 -0.2910 -0.0558
  737SOL     OW 2945   0.174   2.803   1.516  0.7476 -0.0813  0.3830
  737SOL    HW2 2946   0.234   2.731   1.532  0.1730  0.0073  3.3330
  737SOL    HW3 2947   0.087   2.762   1.515  0.6408  0.1702 -0.9643
  737SOL    MW4 2948   0.170   2.788   1.518  0.6577 -0.0364  0.5945
  738SOL     OW 2949   0.214   3.085   1.609  0.2619  0.3077  0.4928
  738SOL    HW2 2950   0.142   3.143   1.587 -0.2076 -0.1754  0.7448
  738SOL    HW3 2951   0.182   2.997   1.588  0.1489 -0.0711  2.1947
  738SOL    MW4 2952   0.201   3.081   1.603  0.1850  0.1940  0.7506
  739SOL     OW 2953   4.478   3.249   1.497 -0.2280 -0.3863  0.1760
  739SOL    HW2 2954   4.485   3.338   1.530 -1.1521 -0.6028  0.9784
  739SOL    HW3 2955   4.492   3.257   1.403 -0.4954  0.6307  0.2154
  739SOL    MW4 2956   4.481   3.262   1.489 -0.3852 -0.2807  0.2871
  740SOL     OW 2957   4.478   3.505   1.602  0.4137  0.3652  1.0016
  740SOL    HW2 2958   4.481   3.521   1.696  0.4984 -2.1417  1.4414
  740SOL    HW3 2959   4.392   3.537   1.575 -0.0468  0.0845  2.1195
  740SOL    MW4 2960   4.467   3.511   1.611  0.3641 -0.0026  1.2071
  741SOL     OW 2961   0.231   3.613   1.494  0.7691  0.3765  0.1471
  741SOL    HW2 2962   0.228   3.702   1.528  1.0779  0.4987 -0.1418
  741SOL    HW3 2963   0.139   3.585   1.492  0.7368  0.4246  0.9220
  741SOL    MW4 2964   0.218   3.621   1.498  0.8056  0.3990  0.2112
  742SOL     OW 2965   0.228   3.872   1.618 -0.5166  0.5119 -0.0766
  742SOL    HW2 2966   0.235   3.885   1.713 -1.3709 -0.1622  0.0808
  742SOL    HW3 2967   0.303   3.919   1.582 -0.8293  1.7241  0.8496
  742SOL    MW4 2968   0.239   3.880   1.626 -0.6706  0.5829  0.0663
  743SOL     OW 2969   0.004   4.000   1.499 -0.0014 -0.2793 -0.0433
  743SOL    HW2 2970   0.017   4.088   1.536  0.1037 -0.0331 -0.6596
  743SOL    HW3 2971   0.068   3.945   1.544 -0.3484 -0.1255  0.6450
  743SOL    MW4 2972   0.014   4.005   1.510 -0.0333 -0.2265 -0.0338
  744SOL     OW 2973   4.481   4.266   1.611 -0.4189 -0.0304  0.4141
  744SOL    HW2 2974   4.480   4.283   1.705 -0.6064  3.6705 -0.1786
  744SOL    HW3 2975   4.390   4.275   1.584 -0.0867  0.8325 -0.4249
  744SOL    MW4 2976   4.469   4.269   1.620 -0.3998  0.5717  0.2252
  745SOL     OW 2977   0.228   4.377   1.529  0.4974  0.3505 -0.2034
  745SOL    HW2 2978   0.146   4.336   1.556  0.1370  0.4482 -1.1370
  745SOL    HW3 2979   0.231   4.459   1.578  0.4743 -0.0790  0.5116
  745SOL    MW4 2980   0.218   4.382   1.539  0.4468  0.3067 -0.2323
  746SOL     OW 2981   0.670   4.638   1.646 -0.2051  0.2929 -0.0314
  746SOL    HW2 2982   0.734   4.671   1.583 -0.8219 -0.5974 -1.1418
  746SOL    HW3 2983   0.593   4.693   1.633 -0.3275  0.1156 -0.0664
  746SOL    MW4 2984   0.669   4.649   1.636 -0.3027  0.1520 -0.1825
  747SOL     OW 2985   0.443   0.111   1.605 -0.1548 -0.0968  0.0489
  747SOL    HW2 2986   0.424   0.203   1.622 -0.0666 -0.2178  0.8429
  747SOL    HW3 2987   0.439   0.102   1.510 -1.8019  0.3630  0.0639
  747SOL    MW4 2988   0.440   0.122   1.595 -0.3605 -0.0521  0.1557
  748SOL     OW 2989   0.424   0.399   1.616 -0.3112  0.0882  0.0218
  748SOL    HW2 2990   0.505   0.446   1.597 -0.0575 -0.4557 -0.2524
  748SOL    HW3 2991   0.355   0.450   1.574 -0.2903  1.3592  1.5044
  748SOL    MW4 2992   0.426   0.412   1.608 -0.2749  0.1842  0.1812
  749SOL     OW 2993   0.660   0.492   1.543  0.3454 -0.0071 -0.3169
  749SOL    HW2 2994   0.661   0.585   1.564 -1.1683 -0.2248  0.8909
  749SOL    HW3 2995   0.646   0.488   1.449  1.1945  0.9855 -0.4905
  749SOL    MW4 2996   0.658   0.504   1.534  0.2577  0.0951 -0.1805
  750SOL     OW 2997   0.647   0.756   1.622 -0.1572 -0.6507 -0.4045
  750SOL    HW2 2998   0.652   0.757   1.717 -0.2864 -1.7320 -0.3792
  750SOL    HW3 2999   0.724   0.806   1.593  0.1026 -0.6592  0.2671
  750SOL    MW4 3000   0.658   0.763   1.631 -0.1400 -0.7945 -0.3125
  751SOL     OW 3001   0.432   0.902   1.532  0.5740 -0.2302 -0.2006
  751SOL    HW2 3002   0.437   0.989   1.570  0.7718  0.5453 -1.9299
  751SOL    HW3 3003   0.510   0.857   1.564  0.6012  0.3092  0.5013
  751SOL    MW4 3004   0.443   0.907   1.541  0.6037 -0.0567 -0.3361
  752SOL     OW 3005   0.463   1.156   1.624 -0.0776  0.0956 -0.3332
  752SOL    HW2 3006   0.546   1.175   1.580  0.7025  1.0737  1.5055
  752SOL    HW3 3007   0.397   1.194   1.567  0.8086  0.0985 -1.3761
  752SOL    MW4 3008   0.465   1.164   1.611  0.1423  0.2251 -0.2282
  753SOL     OW 3009   0.705   1.244   1.502 -0.4397  0.3705 -0.6505
  753SOL    HW2 3010   0.695   1.330   1.544  0.3415  0.7867 -1.3155
  753SOL    HW3 3011   0.686   1.261   1.410 -1.3497 -0.3896 -0.6154
  753SOL    MW4 3012   0.701   1.257   1.496 -0.4567  0.3252 -0.7336
  754SOL     OW 3013   0.697   1.521   1.558 -0.2301  0.5724 -0.5326
  754SOL    HW2 3014   0.775   1.563   1.522 -0.4366  0.2271 -1.3963
  754SOL    HW3 3015   0.624   1.574   1.525 -0.3752  0.7900  0.1253
  754SOL    MW4 3016   0.697   1.534   1.549 -0.2765  0.5556 -0.5597
  755SOL     OW 3017   0.494   1.692   1.448  0.0704 -0.5044  0.1875
  755SOL    HW2 3018   0.491   1.774   1.497 -0.2480 -0.3043 -0.1673
  755SOL    HW3 3019   0.419   1.642   1.481 -0.8379  0.1059 -0.9314
  755SOL    MW4 3020   0.483   1.696   1.459 -0.0915 -0.3975 -0.0069
  756SOL     OW 3021   0.474   1.936   1.570 -0.0201 -0.3248 -0.5582
  756SOL    HW2 3022   0.472   1.946   1.665  0.2120 -1.3815 -0.4379
  756SOL    HW3 3023   0.396   1.981   1.539  1.3582  2.4808 -0.1121
  756SOL    MW4 3024   0.464   1.943   1.578  0.1923 -0.0941 -0.4835
  757SOL     OW 3025   0.705   2.035   1.450 -0.0636  0.1545  0.0118
  757SOL    HW2 3026   0.782   1.988   1.484 -0.2071  0.1287  0.2995
  757SOL    HW3 3027   0.630   1.983   1.479 -0.0986 -1.2766 -2.5159
  757SOL    MW4 3028   0.706   2.022   1.458 -0.0872 -0.0378 -0.2837
  758SOL     OW 3029   0.693   2.309   1.507  0.4436  0.1428 -0.1921
  758SOL    HW2 3030   0.604   2.345   1.506  0.2579 -0.3268 -1.1424
  758SOL    HW3 3031   0.680   2.215   1.497  1.0167 -0.0061  0.4263
  758SOL    MW4 3032   0.680   2.301   1.506  0.4947  0.0612 -0.2359
  759SOL     OW 3033   0.422   2.394   1.528 -0.0237 -0.0522 -0.1444
  759SOL    HW2 3034   0.424   2.487   1.548  0.8547 -0.1647  0.3009
  759SOL    HW3 3035   0.334   2.365   1.555  0.7117  0.0445  2.4594
  759SOL    MW4 3036   0.411   2.402   1.535  0.1892 -0.0543  0.2579
  760SOL     OW 3037   0.422   2.665   1.585 -0.5005  0.6711 -0.9919
  760SOL    HW2 3038   0.432   2.675   1.680 -1.1750 -0.0503 -0.8344
  760SOL    HW3 3039   0.498   2.709   1.548  0.5882 -0.3712 -0.0541
  760SOL    MW4 3040   0.433   2.672   1.593 -0.4459  0.4384 -0.8474
  761SOL     OW 3041   0.672   2.762   1.507 -0.2028 -0.2662 -0.2051
  761SOL    HW2 3042   0.657   2.849   1.543  0.1445  0.3079 -1.3937
  761SOL    HW3 3043   0.674   2.776   1.412  0.8927 -1.3989 -0.3615
  761SOL    MW4 3044   0.671   2.775   1.499 -0.0125 -0.3399 -0.3826
  762SOL     OW 3045   0.643   3.017   1.581 -0.0319  0.0435  0.1012
  762SOL    HW2 3046   0.721   3.057   1.542  0.5374 -1.1302  0.0404
  762SOL    HW3 3047   0.573   3.081   1.564  0.0291 -0.7465 -3.4921
  762SOL    MW4 3048   0.644   3.031   1.573  0.0513 -0.2156 -0.3809
  763SOL     OW 3049   0.449   3.189   1.537  0.1494  0.3821  0.1238
  763SOL    HW2 3050   0.370   3.148   1.571  0.5553  0.0248  0.6494
  763SOL    HW3 3051   0.433   3.199   1.443  0.2492 -1.4414 -0.0930
  763SOL    MW4 3052   0.437   3.185   1.529  0.2161  0.0944  0.1646
  764SOL     OW 3053   0.426   3.446   1.627 -0.1553 -0.3893  0.2305
  764SOL    HW2 3054   0.432   3.363   1.580  1.3218 -0.3563  0.3493
  764SOL    HW3 3055   0.353   3.492   1.584  0.9496 -0.4991 -1.8178
  764SOL    MW4 3056   0.417   3.441   1.615  0.1854 -0.3994 -0.0241
  765SOL     OW 3057   0.655   3.594   1.527 -0.0078 -0.0078 -0.1508
  765SOL    HW2 3058   0.732   3.539   1.542  0.9916  1.0658 -1.2857
  765SOL    HW3 3059   0.581   3.536   1.545  1.0500 -1.1812  0.5289
  765SOL    MW4 3060   0.655   3.579   1.532  0.2636 -0.0210 -0.2108
  766SOL     OW 3061   0.656   3.841   1.677 -0.1420  0.1597 -0.2269
  766SOL    HW2 3062   0.735   3.881   1.640 -0.3903  0.2410 -0.6792
  766SOL    HW3 3063   0.671   3.747   1.669  1.0408  0.1130  2.1038
  766SOL    MW4 3064   0.669   3.834   1.671 -0.0187  0.1643  0.0209
  767SOL     OW 3065   0.464   4.009   1.557 -0.5448 -0.0949 -0.5715
  767SOL    HW2 3066   0.516   3.937   1.591 -1.6144 -0.3017  0.6440
  767SOL    HW3 3067   0.491   4.017   1.465  1.0555 -0.6908 -0.1623
  767SOL    MW4 3068   0.474   4.001   1.549 -0.4747 -0.2008 -0.3571
  768SOL     OW 3069   0.439   4.246   1.664  0.4201 -0.7091 -0.1309
  768SOL    HW2 3070   0.452   4.157   1.633  0.6440 -0.7366  0.0398
  768SOL    HW3 3071   0.364   4.278   1.614  2.1080 -0.0109 -2.3034
  768SOL    MW4 3072   0.431   4.239   1.654  0.6724 -0.6206 -0.3950
  769SOL     OW 3073   0.636   4.389   1.550  0.2203  0.1260  0.1828
  769SOL    HW2 3074   0.559   4.347   1.589 -0.8201  0.4672 -1.4185
  769SOL    HW3 3075   0.635   4.478   1.585 -0.9742  0.5704 -0.9281
  769SOL    MW4 3076   0.625   4.395   1.559 -0.0746  0.2297 -0.1750
  770SOL     OW 3077   1.113   4.631   1.579 -0.1542  0.4471 -0.1227
  770SOL    HW2 3078   1.099   4.632   1.674 -1.2008 -0.7337 -0.2539
  770SOL    HW3 3079   1.180   4.698   1.564 -0.5687  1.2139  1.3519
  770SOL    MW4 3080   1.120   4.640   1.590 -0.3470  0.3924  0.0546
  771SOL     OW 3081   0.866   0.088   1.506 -0.2866  0.8947  0.4790
  771SOL    HW2 3082   0.865   0.172   1.553 -1.1323 -0.1004  2.3062
  771SOL    HW3 3083   0.944   0.043   1.539  0.0131  0.8445 -0.2943
  771SOL    MW4 3084   0.876   0.093   1.517 -0.3586  0.7568  0.6180
  772SOL     OW 3085   0.883   0.350   1.619  0.5477 -0.3128  0.1436
  772SOL    HW2 3086   0.886   0.344   1.715  0.3324  1.3304  0.2677
  772SOL    HW3 3087   0.806   0.404   1.601  1.1475  0.2033 -0.9153
  772SOL    MW4 3088   0.873   0.356   1.630  0.5984 -0.0279  0.0202
  773SOL     OW 3089   1.112   0.473   1.484 -0.1598 -0.2418 -0.2527
  773SOL    HW2 3090   1.120   0.559   1.526  0.6369  0.3412 -1.5489
  773SOL    HW3 3091   1.041   0.429   1.531 -0.5340  1.1064  0.4585
  773SOL    MW4 3092   1.104   0.479   1.496 -0.1041  0.0130 -0.3298
  774SOL     OW 3093   1.146   0.733   1.639 -0.4875 -0.0626 -0.3499
  774SOL    HW2 3094   1.158   0.715   1.732 -0.9636 -0.5759 -0.3866
  774SOL    HW3 3095   1.231   0.767   1.610  0.1968 -1.5554 -0.1184
  774SOL    MW4 3096   1.159   0.735   1.647 -0.4600 -0.3273 -0.3242
  775SOL     OW 3097   0.895   0.864   1.554  0.0847 -0.2608 -0.0321
  775SOL    HW2 3098   0.981   0.836   1.584 -0.2171  0.0102  1.1399
  775SOL    HW3 3099   0.903   0.871   1.459  1.1771 -0.8190  0.0149
  775SOL    MW4 3100   0.907   0.861   1.545  0.1890 -0.2987  0.1288
  776SOL     OW 3101   0.902   1.125   1.650  0.0735  0.1569 -0.1101
  776SOL    HW2 3102   0.910   1.034   1.622  0.6829  0.3150 -0.4584
  776SOL    HW3 3103   0.841   1.164   1.587 -1.2021 -0.3251  0.8091
  776SOL    MW4 3104   0.895   1.118   1.638 -0.0144  0.1142 -0.0348
  777SOL     OW 3105   1.089   1.306   1.535 -0.0360 -0.1559  0.2481
  777SOL    HW2 3106   1.176   1.276   1.562 -0.1348 -0.9296 -0.2800
  777SOL    HW3 3107   1.029   1.240   1.569 -0.5237  0.9175  1.5124
  777SOL    MW4 3108   1.093   1.293   1.543 -0.1134 -0.1163  0.3453
  778SOL     OW 3109   1.127   1.576   1.608 -0.1494  0.2927  0.1773
  778SOL    HW2 3110   1.213   1.603   1.578  0.0885 -0.9088 -0.2712
  778SOL    HW3 3111   1.125   1.481   1.593 -1.0079  0.0770  1.5018
  778SOL    MW4 3112   1.138   1.567   1.602 -0.2312  0.1057  0.2929
  779SOL     OW 3113   0.893   1.678   1.453  0.7518 -0.4104 -0.7082
  779SOL    HW2 3114   0.981   1.661   1.488  0.6706  1.4505  0.4759
  779SOL    HW3 3115   0.902   1.669   1.358  2.5664  1.0999 -0.7096
  779SOL    MW4 3116   0.906   1.675   1.445  0.9805  0.0344 -0.5521
  780SOL     OW 3117   0.914   1.920   1.592 -0.0675 -0.2520  0.1333
  780SOL    HW2 3118   1.002   1.946   1.564  0.0388 -0.2538  0.4555
  780SOL    HW3 3119   0.900   1.834   1.554  0.1253 -0.3103  0.1968
  780SOL    MW4 3120   0.924   1.912   1.584 -0.0281 -0.2599  0.1842
  781SOL     OW 3121   1.164   2.041   1.507 -0.0089 -0.1744  0.0490
  781SOL    HW2 3122   1.257   2.017   1.507  0.3772  1.2683 -0.3171
  781SOL    HW3 3123   1.164   2.137   1.511 -1.4839 -0.1469 -0.3385
  781SOL    MW4 3124   1.177   2.051   1.508 -0.1526  0.0196 -0.0504
  782SOL     OW 3125   1.180   2.313   1.576  0.5503 -0.2427  0.2036
  782SOL    HW2 3126   1.254   2.366   1.547 -0.5080  0.5605 -1.1299
  782SOL    HW3 3127   1.104   2.353   1.533 -0.6922 -0.8868  1.7469
  782SOL    MW4 3128   1.179   2.325   1.566  0.2467 -0.2217  0.2313
  783SOL     OW 3129   0.955   2.417   1.488 -0.3553 -0.0173  0.1837
  783SOL    HW2 3130   0.964   2.496   1.540 -0.9539  1.5550 -2.0505
  783SOL    HW3 3131   0.866   2.386   1.505 -0.7087  0.7502 -0.2597
  783SOL    MW4 3132   0.945   2.423   1.497 -0.4809  0.2914 -0.1696
  784SOL     OW 3133   0.904   2.645   1.633 -0.4521  0.1360 -0.1885
  784SOL    HW2 3134   0.908   2.649   1.728 -0.4101  2.7747 -0.2635
  784SOL    HW3 3135   0.819   2.683   1.610 -1.1115 -1.8118 -1.1846
  784SOL    MW4 3136   0.893   2.650   1.642 -0.5335  0.2272 -0.3298
  785SOL     OW 3137   1.109   2.816   1.549  0.1391  0.2309 -0.4515
  785SOL    HW2 3138   1.087   2.901   1.587 -1.0674 -0.1077 -0.3717
  785SOL    HW3 3139   1.033   2.761   1.568  0.0238 -0.2737 -2.3575
  785SOL    MW4 3140   1.096   2.820   1.557 -0.0353  0.1197 -0.6924
  786SOL     OW 3141   1.095   3.073   1.593  0.2292  0.2122 -0.0051
  786SOL    HW2 3142   1.081   3.104   1.682  2.8978  1.0391  0.1646
  786SOL    HW3 3143   1.180   3.110   1.568 -0.3967 -0.1811 -2.8113
  786SOL    MW4 3144   1.104   3.082   1.602  0.4987  0.2694 -0.3530
  787SOL     OW 3145   0.862   3.193   1.483 -0.4665  0.1426 -0.2479
  787SOL    HW2 3146   0.941   3.152   1.519 -1.8780 -2.4630  0.0466
  787SOL    HW3 3147   0.871   3.182   1.388  1.2120  3.1435 -0.4867
  787SOL    MW4 3148   0.874   3.186   1.475 -0.4313  0.1948 -0.2406
  788SOL     OW 3149   0.881   3.447   1.601  0.4209  0.5753 -0.6192
  788SOL    HW2 3150   0.968   3.477   1.575  1.4558 -0.2373  1.8037
  788SOL    HW3 3151   0.873   3.360   1.562  0.4414  0.8722 -1.3046
  788SOL    MW4 3152   0.891   3.440   1.592  0.5601  0.5073 -0.3899
  789SOL     OW 3153   1.124   3.574   1.545  0.1436 -0.0146 -0.0828
  789SOL    HW2 3154   1.200   3.524   1.572 -0.2280  0.3142  1.6962
  789SOL    HW3 3155   1.122   3.568   1.450  1.3275 -1.5584 -0.0179
  789SOL    MW4 3156   1.134   3.566   1.536  0.2508 -0.1749  0.1605
  790SOL     OW 3157   1.077   3.832   1.647 -0.5008 -0.4675 -0.1880
  790SOL    HW2 3158   1.159   3.875   1.621  0.1080 -1.2235  0.4656
  790SOL    HW3 3159   1.083   3.744   1.610 -1.0665 -0.4894 -0.2299
  790SOL    MW4 3160   1.089   3.826   1.639 -0.4951 -0.5702 -0.1073
  791SOL     OW 3161   0.850   3.971   1.533 -0.2028  0.2805 -0.0516
  791SOL    HW2 3162   0.855   4.059   1.570 -0.8667  0.4959 -0.4678
  791SOL    HW3 3163   0.933   3.929   1.559 -0.1366  0.8300  0.6309
  791SOL    MW4 3164   0.862   3.977   1.541 -0.2817  0.3814 -0.0164
  792SOL     OW 3165   0.868   4.239   1.604  0.1622  0.4834  0.5125
  792SOL    HW2 3166   0.869   4.246   1.700  0.7256  0.2783  0.5261
  792SOL    HW3 3167   0.786   4.280   1.578 -0.3192 -0.0706  1.1293
  792SOL    MW4 3168   0.857   4.246   1.613  0.1730  0.3833  0.5957
  793SOL     OW 3169   1.099   4.350   1.505  0.0831  0.7928 -0.3212
  793SOL    HW2 3170   1.013   4.325   1.537  0.3719  0.0578 -0.1060
  793SOL    HW3 3171   1.113   4.439   1.539  0.7102 -0.2571  2.2412
  793SOL    MW4 3172   1.090   4.359   1.513  0.2040  0.5573  0.0453
  794SOL     OW 3173   1.531   4.627   1.552  0.1269 -0.2240 -0.4327
  794SOL    HW2 3174   1.536   4.624   1.647  1.1391 -1.3716 -0.5154
  794SOL    HW3 3175   1.467   4.696   1.533  0.4287  0.4679  1.0577
  794SOL    MW4 3176   1.523   4.636   1.562  0.3003 -0.2841 -0.2470
  795SOL     OW 3177   1.322   0.132   1.518 -0.4311  0.9686  0.1193
  795SOL    HW2 3178   1.346   0.214   1.562 -0.8407  1.7303 -1.0488
  795SOL    HW3 3179   1.312   0.157   1.426  0.2464 -0.5642 -0.3808
  795SOL    MW4 3180   1.324   0.146   1.512 -0.3958  0.8668 -0.1008
  796SOL     OW 3181   1.341   0.386   1.622  0.2564 -0.5974 -0.1189
  796SOL    HW2 3182   1.417   0.427   1.583  1.4207 -1.3556  1.2778
  796SOL    HW3 3183   1.266   0.419   1.572  1.1791  2.8013  0.6433
  796SOL    MW4 3184   1.341   0.396   1.611  0.5317 -0.2490  0.1660
  797SOL     OW 3185   1.565   0.497   1.504  0.0288  0.1984 -0.0351
  797SOL    HW2 3186   1.644   0.442   1.510  0.0042  0.1576 -0.0910
  797SOL    HW3 3187   1.546   0.502   1.410 -1.1814 -1.4204  0.1149
  797SOL    MW4 3188   1.573   0.490   1.492 -0.1341 -0.0206 -0.0227
  798SOL     OW 3189   1.602   0.769   1.609 -0.4477 -0.0868  0.0700
  798SOL    HW2 3190   1.571   0.750   1.697  1.2530  1.4042  1.0218
  798SOL    HW3 3191   1.619   0.684   1.570 -1.1456 -0.7523  1.1923
  798SOL    MW4 3192   1.600   0.755   1.615 -0.3154  0.0221  0.3437
  799SOL     OW 3193   1.357   0.898   1.527 -0.2370  0.3762  0.3116
  799SOL    HW2 3194   1.438   0.849   1.539 -0.9108 -0.7754  0.2990
  799SOL    HW3 3195   1.345   0.903   1.432 -0.3121  0.3049  0.3165
  799SOL    MW4 3196   1.366   0.892   1.516 -0.3358  0.2149  0.3106
  800SOL     OW 3197   1.320   1.189   1.623 -0.3815  0.3759  0.2947
  800SOL    HW2 3198   1.336   1.183   1.717 -0.3092  1.2297  0.3398
  800SOL    HW3 3199   1.323   1.098   1.592 -0.8632  0.0589  1.1871
  800SOL    MW4 3200   1.323   1.176   1.631 -0.4355  0.4468  0.4184
  801SOL     OW 3201   1.572   1.264   1.517  0.1327  0.3818  0.0365
  801SOL    HW2 3202   1.487   1.234   1.548  0.7834 -1.7675 -0.1758
  801SOL    HW3 3203   1.565   1.265   1.422 -0.1413  1.7408  0.0592
  801SOL    MW4 3204   1.560   1.260   1.509  0.1824  0.2775  0.0115
  802SOL     OW 3205   1.584   1.526   1.592  0.1289 -0.3025  0.9011
  802SOL    HW2 3206   1.594   1.530   1.688  0.4311 -1.1019  0.8997
  802SOL    HW3 3207   1.584   1.433   1.572 -0.2142 -0.1383  0.1437
  802SOL    MW4 3208   1.585   1.514   1.602  0.1235 -0.3863  0.8010
  803SOL     OW 3209   1.378   1.682   1.515  0.0717  0.1910  0.0274
  803SOL    HW2 3210   1.444   1.614   1.530 -0.4564 -0.2731  0.2590
  803SOL    HW3 3211   1.362   1.680   1.421 -2.4495 -2.3816  0.4253
  803SOL    MW4 3212   1.385   1.673   1.505 -0.3306 -0.2097  0.1104
  804SOL     OW 3213   1.411   1.943   1.554  0.1198  0.0754  0.3878
  804SOL    HW2 3214   1.402   1.956   1.649 -0.8557 -0.9850  0.4529
  804SOL    HW3 3215   1.397   1.849   1.541 -2.8461  0.6549 -1.1298
  804SOL    MW4 3216   1.408   1.933   1.565 -0.4002  0.0120  0.1961
  805SOL     OW 3217   1.626   2.104   1.490 -0.2349 -0.3147 -0.5806
  805SOL    HW2 3218   1.557   2.050   1.527 -0.5370  1.1627  1.1086
  805SOL    HW3 3219   1.619   2.092   1.396 -1.9269 -1.2301 -0.3486
  805SOL    MW4 3220   1.616   2.095   1.482 -0.4980 -0.2406 -0.3271
  806SOL     OW 3221   1.626   2.353   1.602 -0.1489 -0.2953  0.1484
  806SOL    HW2 3222   1.703   2.392   1.561 -0.4314  0.3586  0.2275
  806SOL    HW3 3223   1.614   2.270   1.556  2.5931 -2.0214  2.4314
  806SOL    MW4 3224   1.635   2.348   1.590  0.1756 -0.4368  0.4600
  807SOL     OW 3225   1.392   2.474   1.472  0.1015  0.1882  0.0948
  807SOL    HW2 3226   1.375   2.556   1.517 -0.7078 -0.4357  0.9459
  807SOL    HW3 3227   1.472   2.441   1.512 -0.0149  0.1707  0.3141
  807SOL    MW4 3228   1.400   2.480   1.483 -0.0207  0.1036  0.2360
  808SOL     OW 3229   1.349   2.700   1.642  0.0821 -0.1650 -0.1318
  808SOL    HW2 3230   1.425   2.749   1.613 -0.6652  0.8190 -0.4508
  808SOL    HW3 3231   1.274   2.752   1.613 -0.7033 -0.4368  1.3458
  808SOL    MW4 3232   1.349   2.713   1.635 -0.1202 -0.0711  0.0211
  809SOL     OW 3233   1.589   2.782   1.539  0.4494  0.4085 -0.1977
  809SOL    HW2 3234   1.677   2.756   1.567  0.2904  0.9959  0.8674
  809SOL    HW3 3235   1.600   2.806   1.447  1.2459 -0.2667 -0.2873
  809SOL    MW4 3236   1.602   2.782   1.530  0.5335  0.3969 -0.0690
  810SOL     OW 3237   1.574   3.061   1.689  0.7981 -0.0165 -0.0910
  810SOL    HW2 3238   1.652   3.106   1.655  1.0819 -0.4691 -0.0434
  810SOL    HW3 3239   1.589   2.969   1.667  0.6117 -0.2023  0.5656
  810SOL    MW4 3240   1.586   3.055   1.681  0.8109 -0.1007  0.0019
  811SOL     OW 3241   1.345   3.181   1.544  0.4224 -0.3882 -0.0346
  811SOL    HW2 3242   1.343   3.270   1.578 -0.3589 -0.6196  0.5384
  811SOL    HW3 3243   1.427   3.145   1.576  1.0124  0.3051 -0.7424
  811SOL    MW4 3244   1.356   3.188   1.552  0.3971 -0.3273 -0.0524
  812SOL     OW 3245   1.355   3.442   1.629  0.2791 -0.1842 -0.1258
  812SOL    HW2 3246   1.339   3.462   1.721  0.0684  2.7812 -0.7589
  812SOL    HW3 3247   1.434   3.491   1.608 -0.1377 -0.1950 -1.7453
  812SOL    MW4 3248   1.363   3.451   1.639  0.1963  0.2056 -0.4230
  813SOL     OW 3249   1.566   3.594   1.558 -0.1595 -0.5735  0.6018
  813SOL    HW2 3250   1.549   3.684   1.588  0.6767  0.3275 -1.5505
  813SOL    HW3 3251   1.570   3.601   1.463  0.0269 -2.8930  0.4211
  813SOL    MW4 3252   1.564   3.607   1.550 -0.0246 -0.7607  0.2940
  814SOL     OW 3253   1.536   3.858   1.605 -0.1180 -0.0255 -0.0378
  814SOL    HW2 3254   1.541   3.864   1.701  0.2357 -0.6104 -0.0172
  814SOL    HW3 3255   1.448   3.890   1.584  0.1888  1.1247  0.3889
  814SOL    MW4 3256   1.525   3.863   1.615 -0.0309  0.0491  0.0212
  815SOL     OW 3257   1.297   3.965   1.545 -0.2673 -0.0875 -0.3782
  815SOL    HW2 3258   1.311   4.046   1.594  0.8091  0.1649 -1.0904
  815SOL    HW3 3259   1.286   3.993   1.454 -0.5326 -0.6969 -0.5391
  815SOL    MW4 3260   1.297   3.979   1.539 -0.1603 -0.1346 -0.4934
  816SOL     OW 3261   1.323   4.239   1.617 -0.0196  0.3687 -0.1917
  816SOL    HW2 3262   1.400   4.282   1.579 -0.7432  2.4154  0.6219
  816SOL    HW3 3263   1.248   4.281   1.575 -0.7121 -1.7619 -1.1366
  816SOL    MW4 3264   1.323   4.250   1.607 -0.2065  0.3576 -0.2090
  817SOL     OW 3265   1.525   4.370   1.493 -0.0211 -0.0546  0.9646
  817SOL    HW2 3266   1.606   4.325   1.515  0.5837  0.1507 -0.7094
  817SOL    HW3 3267   1.537   4.459   1.526  1.2386  0.5025 -0.8757
  817SOL    MW4 3268   1.537   4.376   1.500  0.2249  0.0460  0.5009
  818SOL     OW 3269   1.964   4.604   1.567  0.0909  0.0664 -0.0981
  818SOL    HW2 3270   1.956   4.612   1.662 -2.0037  1.1211 -0.3313
  818SOL    HW3 3271   1.900   4.666   1.533  0.1402 -0.9976 -2.1866
  818SOL    MW4 3272   1.954   4.613   1.575 -0.1790  0.0652 -0.4044
  819SOL     OW 3273   1.775   0.117   1.454 -0.0200 -0.5606  0.2009
  819SOL    HW2 3274   1.692   0.073   1.473 -0.9591  0.9178 -0.3675
  819SOL    HW3 3275   1.777   0.126   1.359  0.5062 -0.0452  0.2538
  819SOL    MW4 3276   1.764   0.112   1.444 -0.0745 -0.2976  0.1329
  820SOL     OW 3277   1.809   0.368   1.564  0.2185  0.0337  0.4478
  820SOL    HW2 3278   1.895   0.402   1.539  0.0887  1.2606  1.5948
  820SOL    HW3 3279   1.805   0.281   1.525  1.4769  0.4659 -0.6671
  820SOL    MW4 3280   1.820   0.361   1.556  0.3674  0.2526  0.4520
  821SOL     OW 3281   2.040   0.506   1.491 -0.0371 -0.3617 -0.1047
  821SOL    HW2 3282   2.126   0.470   1.512 -0.3564 -1.0408  0.0504
  821SOL    HW3 3283   2.034   0.586   1.543  1.2017  0.6234 -1.4225
  821SOL    MW4 3284   2.051   0.512   1.500  0.0842 -0.3214 -0.2581
  822SOL     OW 3285   2.036   0.757   1.616 -0.6429 -0.1687  0.1524
  822SOL    HW2 3286   2.115   0.791   1.575 -1.3968  2.2088  0.5826
  822SOL    HW3 3287   1.964   0.797   1.566 -1.5578 -0.1545  1.4399
  822SOL    MW4 3288   2.037   0.767   1.604 -0.8631  0.1469  0.3790
  823SOL     OW 3289   1.823   0.883   1.492  0.2161 -0.3284  0.0145
  823SOL    HW2 3290   1.835   0.970   1.531 -1.3877  0.6311 -1.5587
  823SOL    HW3 3291   1.755   0.842   1.545 -0.3425  0.0958 -0.3696
  823SOL    MW4 3292   1.815   0.889   1.504 -0.0692 -0.1458 -0.2438
  824SOL     OW 3293   1.806   1.130   1.621  0.2311  0.2556  0.4543
  824SOL    HW2 3294   1.868   1.187   1.576 -0.0716  0.6102  0.4778
  824SOL    HW3 3295   1.720   1.160   1.591  0.1569 -2.3325 -2.1099
  824SOL    MW4 3296   1.803   1.141   1.611  0.1814 -0.0391  0.1191
  825SOL     OW 3297   2.023   1.286   1.517 -0.0576  0.2488 -0.2704
  825SOL    HW2 3298   2.003   1.373   1.551  1.8290  0.3730  0.5818
  825SOL    HW3 3299   2.044   1.301   1.425 -0.1443  0.6187 -0.2324
  825SOL    MW4 3300   2.023   1.300   1.509  0.1798  0.3140 -0.1530
  826SOL     OW 3301   1.999   1.540   1.601  0.3905  0.2098  1.1133
  826SOL    HW2 3302   2.086   1.561   1.567 -0.0171 -0.9204 -0.6895
  826SOL    HW3 3303   1.939   1.595   1.549 -0.2077 -1.1969  0.2988
  826SOL    MW4 3304   2.002   1.550   1.590  0.2578 -0.1249  0.7680
  827SOL     OW 3305   1.782   1.683   1.494  0.6209 -0.0230 -0.1042
  827SOL    HW2 3306   1.713   1.622   1.520  1.5997 -1.2765 -0.4410
  827SOL    HW3 3307   1.777   1.686   1.399  0.6064  0.3863 -0.0904
  827SOL    MW4 3308   1.772   1.675   1.485  0.7481 -0.1344 -0.1468
  828SOL     OW 3309   1.832   1.948   1.587 -0.4156  0.4724  0.3641
  828SOL    HW2 3310   1.806   1.860   1.560  2.4941 -0.5807  0.9095
  828SOL    HW3 3311   1.767   2.005   1.546 -1.9210 -1.8507 -0.5909
  828SOL    MW4 3312   1.820   1.944   1.578 -0.2304  0.0269  0.3100
  829SOL     OW 3313   2.065   2.071   1.500  0.2255  0.4287  0.0627
  829SOL    HW2 3314   2.122   2.003   1.535 -0.6958  0.9813  2.8050
  829SOL    HW3 3315   1.976   2.036   1.511 -0.1756  1.4395  0.1563
  829SOL    MW4 3316   2.061   2.057   1.506  0.0510  0.6350  0.4368
  830SOL     OW 3317   2.047   2.322   1.613 -0.4584 -0.2148 -0.0494
  830SOL    HW2 3318   2.033   2.314   1.708  0.8209  0.3924  0.1980
  830SOL    HW3 3319   2.073   2.234   1.586  0.4784 -0.0828  0.3976
  830SOL    MW4 3320   2.048   2.309   1.622 -0.1660 -0.1172  0.0422
  831SOL     OW 3321   1.840   2.462   1.479 -0.4020  0.7041  0.2411
  831SOL    HW2 3322   1.909   2.408   1.517  0.3824  0.9732 -0.7547
  831SOL    HW3 3323   1.860   2.463   1.385 -0.6242  2.3801  0.1847
  831SOL    MW4 3324   1.852   2.455   1.471 -0.3278  0.9607  0.1022
  832SOL     OW 3325   1.835   2.685   1.652  0.1992  0.0473  0.2131
  832SOL    HW2 3326   1.894   2.740   1.601  1.1761 -1.3177 -0.1793
  832SOL    HW3 3327   1.843   2.599   1.611 -1.4833 -0.3228  0.6538
  832SOL    MW4 3328   1.844   2.681   1.640  0.1061 -0.1816  0.2195
  833SOL     OW 3329   2.038   2.840   1.557 -0.0032 -0.3407  0.2234
  833SOL    HW2 3330   2.046   2.925   1.600 -0.6330 -0.7259  1.1284
  833SOL    HW3 3331   2.045   2.859   1.464 -0.1394  0.7004  0.4191
  833SOL    MW4 3332   2.040   2.853   1.551 -0.1042 -0.2542  0.3686
  834SOL     OW 3333   2.010   3.085   1.673 -0.7596 -0.4534 -0.2048
  834SOL    HW2 3334   2.018   3.087   1.768 -0.7994 -1.6169 -0.1648
  834SOL    HW3 3335   2.079   3.143   1.641 -0.8085  0.0129  0.5351
  834SOL    MW4 3336   2.020   3.093   1.681 -0.7713 -0.5454 -0.1019
  835SOL     OW 3337   1.776   3.179   1.536  0.3291 -0.6469  0.0060
  835SOL    HW2 3338   1.773   3.271   1.562  1.0749 -0.6619  0.1507
  835SOL    HW3 3339   1.860   3.147   1.570  0.3046 -1.2461 -0.4947
  835SOL    MW4 3340   1.787   3.187   1.544  0.4243 -0.7279 -0.0410
  836SOL     OW 3341   1.826   3.443   1.605 -0.1690  0.2477 -0.2332
  836SOL    HW2 3342   1.818   3.457   1.699  1.1684  0.4355 -0.1426
  836SOL    HW3 3343   1.743   3.475   1.569 -1.2381 -1.0842  0.9971
  836SOL    MW4 3344   1.814   3.449   1.612 -0.1336  0.0967 -0.0589
  837SOL     OW 3345   2.039   3.639   1.526  0.1766  0.8536 -0.7272
  837SOL    HW2 3346   2.111   3.603   1.578 -0.3162  0.0939 -0.5571
  837SOL    HW3 3347   1.971   3.572   1.530 -0.1191  1.0752 -1.7992
  837SOL    MW4 3348   2.040   3.625   1.533  0.0726  0.7826 -0.8462
  838SOL     OW 3349   2.024   3.913   1.607  0.2959 -0.1493 -0.7400
  838SOL    HW2 3350   2.101   3.956   1.571  0.8412 -0.4717  0.0517
  838SOL    HW3 3351   2.030   3.823   1.575 -0.1759  0.0282 -1.3389
  838SOL    MW4 3352   2.035   3.907   1.598  0.3056 -0.1684 -0.7145
  839SOL     OW 3353   1.776   3.975   1.477 -0.2095  0.5391  0.4021
  839SOL    HW2 3354   1.858   3.964   1.525 -0.0538  2.3738  0.6078
  839SOL    HW3 3355   1.709   3.936   1.533  0.2844  0.6735  1.0866
  839SOL    MW4 3356   1.778   3.969   1.491 -0.1238  0.7989  0.5195
  840SOL     OW 3357   1.765   4.245   1.560  0.1067  0.6136  0.5092
  840SOL    HW2 3358   1.849   4.282   1.533  1.0426 -0.7067  1.5495
  840SOL    HW3 3359   1.768   4.154   1.530 -0.6719  0.3732  1.1339
  840SOL    MW4 3360   1.777   4.238   1.552  0.1275  0.4076  0.7289
  841SOL     OW 3361   2.037   4.333   1.510  0.3171  1.1078 -0.0091
  841SOL    HW2 3362   2.104   4.310   1.575 -0.4334  0.3157  0.4899
  841SOL    HW3 3363   1.999   4.415   1.543 -1.7644 -0.5566  1.9036
  841SOL    MW4 3364   2.041   4.341   1.523 -0.0566  0.7837  0.3091
  842SOL     OW 3365   2.443   4.652   1.604  0.1307 -0.3984 -0.1075
  842SOL    HW2 3366   2.449   4.657   1.699 -0.8052  0.8588 -0.1081
  842SOL    HW3 3367   2.349   4.657   1.585  0.2542 -1.3278 -1.0695
  842SOL    MW4 3368   2.431   4.653   1.614  0.0235 -0.3552 -0.2345
  843SOL     OW 3369   2.213   0.072   1.502 -0.0433 -0.0272 -0.4531
  843SOL    HW2 3370   2.137   0.013   1.506 -0.9515  1.0701 -1.2052
  843SOL    HW3 3371   2.229   0.082   1.408 -0.5928  1.7930 -0.3631
  843SOL    MW4 3372   2.205   0.065   1.490 -0.2356  0.3577 -0.5405
  844SOL     OW 3373   2.245   0.346   1.596 -0.0837 -0.3174  0.1478
  844SOL    HW2 3374   2.229   0.346   1.691 -2.1018 -1.2461 -0.1701
  844SOL    HW3 3375   2.227   0.257   1.569  0.2865 -0.0023 -1.1638
  844SOL    MW4 3376   2.241   0.334   1.605 -0.3011 -0.3983 -0.0672
  845SOL     OW 3377   2.469   0.502   1.541  0.0637 -0.1585  0.5531
  845SOL    HW2 3378   2.537   0.458   1.592 -0.2716  0.8885  1.9232
  845SOL    HW3 3379   2.390   0.451   1.558  0.0954 -0.2109  0.5419
  845SOL    MW4 3380   2.468   0.490   1.550  0.0236 -0.0273  0.7324
  846SOL     OW 3381   2.494   0.765   1.615 -0.3912  0.5608  0.9293
  846SOL    HW2 3382   2.414   0.808   1.584  0.3930  2.2073  1.1394
  846SOL    HW3 3383   2.490   0.677   1.578 -1.2182  1.3386 -0.8757
  846SOL    MW4 3384   2.483   0.759   1.606 -0.3968  0.8807  0.7189
  847SOL     OW 3385   2.257   0.870   1.516  0.2586 -0.0152  0.2443
  847SOL    HW2 3386   2.245   0.961   1.545 -0.6073 -0.0801  0.1005
  847SOL    HW3 3387   2.268   0.876   1.422 -2.0576 -0.2299 -0.0836
  847SOL    MW4 3388   2.257   0.883   1.508 -0.1612 -0.0521  0.1821
  848SOL     OW 3389   2.223   1.127   1.597  0.4032  0.0546  0.2599
  848SOL    HW2 3390   2.236   1.120   1.691  1.5816  1.0063  0.1829
  848SOL    HW3 3391   2.139   1.173   1.588  0.2153 -0.1721  0.8332
  848SOL    MW4 3392   2.214   1.132   1.608  0.5339  0.1502  0.3254
  849SOL     OW 3393   2.455   1.237   1.490  0.3652 -0.1655  0.3640
  849SOL    HW2 3394   2.372   1.203   1.524  0.4218  1.2175  1.9790
  849SOL    HW3 3395   2.442   1.241   1.396 -0.8825 -1.3360  0.4691
  849SOL    MW4 3396   2.442   1.233   1.482  0.2081 -0.1375  0.5909
  850SOL     OW 3397   2.465   1.501   1.653 -0.2251  0.0455 -0.4781
  850SOL    HW2 3398   2.533   1.543   1.600 -1.8110  0.1735 -2.5016
  850SOL    HW3 3399   2.449   1.417   1.610 -0.9488 -0.2157  0.2928
  850SOL    MW4 3400   2.472   1.496   1.640 -0.5298  0.0279 -0.6434
  851SOL     OW 3401   2.236   1.631   1.506  0.2990  0.0017  0.1851
  851SOL    HW2 3402   2.322   1.612   1.542 -0.1857 -0.1532  1.2822
  851SOL    HW3 3403   2.248   1.625   1.411  1.5299  0.1654  0.3212
  851SOL    MW4 3404   2.249   1.628   1.498  0.3975  0.0028  0.3478
  852SOL     OW 3405   2.259   1.893   1.603 -0.2723 -0.2952  0.1837
  852SOL    HW2 3406   2.255   1.889   1.698  1.1095 -1.3054  0.2141
  852SOL    HW3 3407   2.254   1.802   1.575 -0.6492 -0.0021 -0.7165
  852SOL    MW4 3408   2.258   1.881   1.612 -0.1397 -0.3899  0.0690
  853SOL     OW 3409   2.485   2.018   1.498 -0.0213  0.2088  0.6903
  853SOL    HW2 3410   2.414   1.973   1.544 -0.2971 -0.1283 -0.0693
  853SOL    HW3 3411   2.454   2.027   1.408  0.2453  1.4604  0.7177
  853SOL    MW4 3412   2.471   2.013   1.493 -0.0225  0.3295  0.5937
  854SOL     OW 3413   2.455   2.279   1.589 -0.1753 -0.0071 -0.0021
  854SOL    HW2 3414   2.456   2.275   1.685  0.3747 -0.5188 -0.0236
  854SOL    HW3 3415   2.489   2.194   1.562 -0.2291  0.1792 -0.6546
  854SOL    MW4 3416   2.459   2.267   1.598 -0.1098 -0.0501 -0.0910
  855SOL     OW 3417   2.247   2.443   1.466 -0.3275 -0.0757 -0.0540
  855SOL    HW2 3418   2.323   2.416   1.518  0.8867  0.1054 -1.6735
  855SOL    HW3 3419   2.174   2.393   1.502  0.7143 -0.8878  0.9882
  855SOL    MW4 3420   2.247   2.433   1.478 -0.0298 -0.1590 -0.1302
  856SOL     OW 3421   2.206   2.641   1.660  0.3960  0.2733 -0.1979
  856SOL    HW2 3422   2.215   2.577   1.589  0.9999  0.8487 -0.6481
  856SOL    HW3 3423   2.139   2.702   1.628  0.5988  0.4785 -0.2287
  856SOL    MW4 3424   2.198   2.641   1.646  0.5025  0.3763 -0.2614
  857SOL     OW 3425   2.402   2.784   1.541  0.3705  0.4250  0.4542
  857SOL    HW2 3426   2.414   2.871   1.577 -0.1323  0.6542  0.0754
  857SOL    HW3 3427   2.339   2.742   1.601 -1.6217  1.3177 -0.9729
  857SOL    MW4 3428   2.395   2.790   1.554  0.0413  0.5730  0.2160
  858SOL     OW 3429   2.433   3.037   1.650  0.3034 -0.5878  0.4278
  858SOL    HW2 3430   2.518   3.075   1.630  0.3961 -0.9795  0.0643
  858SOL    HW3 3431   2.369   3.103   1.623  0.4880 -0.3604  0.5532
  858SOL    MW4 3432   2.436   3.050   1.643  0.3400 -0.6094  0.3964
  859SOL     OW 3433   2.237   3.229   1.585  0.1996 -0.2324  0.2104
  859SOL    HW2 3434   2.251   3.318   1.618 -0.1502 -0.4016  0.8352
  859SOL    HW3 3435   2.255   3.235   1.491  0.8122  0.3548  0.3546
  859SOL    MW4 3436   2.242   3.241   1.577  0.2343 -0.1772  0.3119
  860SOL     OW 3437   2.270   3.508   1.638  0.4971 -0.2198 -0.0645
  860SOL    HW2 3438   2.280   3.517   1.732  0.7314 -0.1095 -0.1002
  860SOL    HW3 3439   2.349   3.548   1.601  1.6735 -2.6227 -0.2244
  860SOL    MW4 3440   2.281   3.514   1.645  0.6832 -0.5223 -0.0903
  861SOL     OW 3441   2.474   3.612   1.510  0.6540 -0.4937 -0.7165
  861SOL    HW2 3442   2.553   3.572   1.548 -1.0015 -2.7319  0.5155
  861SOL    HW3 3443   2.474   3.702   1.542  1.4548 -1.1802  1.2638
  861SOL    MW4 3444   2.484   3.618   1.519  0.5413 -0.8796 -0.2927
  862SOL     OW 3445   2.492   3.868   1.586 -0.3640  0.6154  0.1302
  862SOL    HW2 3446   2.493   3.870   1.681  0.0764 -2.3789  0.2453
  862SOL    HW3 3447   2.576   3.905   1.559  0.6915 -1.0465  1.0395
  862SOL    MW4 3448   2.503   3.873   1.595 -0.1666  0.0011  0.2653
  863SOL     OW 3449   2.262   3.979   1.483  0.2011  0.1735  0.2539
  863SOL    HW2 3450   2.344   3.939   1.515  0.6906 -0.1367 -1.3339
  863SOL    HW3 3451   2.273   3.981   1.388 -2.0705 -0.8033 -0.0583
  863SOL    MW4 3452   2.275   3.974   1.475 -0.0340  0.0037  0.0032
  864SOL     OW 3453   2.292   4.237   1.599  0.1018 -0.6951  0.1314
  864SOL    HW2 3454   2.373   4.272   1.563  0.2394 -0.4549  0.6760
  864SOL    HW3 3455   2.278   4.155   1.551 -0.9645  0.7590 -2.1870
  864SOL    MW4 3456   2.301   4.231   1.588 -0.0207 -0.4716 -0.1026
  865SOL     OW 3457   2.501   4.401   1.500 -0.5794  0.3694  0.2873
  865SOL    HW2 3458   2.489   4.490   1.534 -0.3797  0.6443 -0.3529
  865SOL    HW3 3459   2.489   4.409   1.406 -0.8479 -0.3397  0.2591
  865SOL    MW4 3460   2.498   4.414   1.492 -0.5885  0.3121  0.1991
  866SOL     OW 3461   2.917   4.649   1.640  0.2707 -0.6068  0.1292
  866SOL    HW2 3462   2.904   4.626   1.732 -0.3711 -1.6002 -0.1936
  866SOL    HW3 3463   2.836   4.693   1.615 -0.1473 -1.6038 -0.3265
  866SOL    MW4 3464   2.904   4.652   1.649  0.1309 -0.8694  0.0265
  867SOL     OW 3465   2.670   0.099   1.574  0.9295 -0.0275 -1.0853
  867SOL    HW2 3466   2.665   0.190   1.606  1.0072 -0.2196 -0.5184
  867SOL    HW3 3467   2.579   0.068   1.575  0.7816  0.3514 -2.1947
  867SOL    MW4 3468   2.657   0.107   1.578  0.9203 -0.0028 -1.1569
  868SOL     OW 3469   2.660   0.361   1.650  0.1657  0.8499 -0.7514
  868SOL    HW2 3470   2.665   0.348   1.745 -0.6581 -0.3815 -0.8634
  868SOL    HW3 3471   2.744   0.399   1.626  1.3293 -1.0804  0.1364
  868SOL    MW4 3472   2.672   0.364   1.660  0.2105  0.4328 -0.6490
  869SOL     OW 3473   2.917   0.478   1.573  0.1595 -0.7673  0.0517
  869SOL    HW2 3474   2.933   0.568   1.602 -1.3851 -0.4863  0.0510
  869SOL    HW3 3475   2.921   0.482   1.478  1.3757 -0.9605  0.0809
  869SOL    MW4 3476   2.920   0.491   1.564  0.1162 -0.7557  0.0555
  870SOL     OW 3477   2.940   0.758   1.625 -0.3648 -0.9418  0.1430
  870SOL    HW2 3478   2.927   0.767   1.720 -0.5516  2.1894 -0.1200
  870SOL    HW3 3479   2.870   0.811   1.587  2.0433  1.0481 -1.6543
  870SOL    MW4 3480   2.929   0.766   1.633 -0.0718 -0.2661 -0.1288
  871SOL     OW 3481   2.709   0.901   1.513 -0.1541 -0.1292  0.3740
  871SOL    HW2 3482   2.637   0.841   1.535  1.0137 -1.7427 -0.1013
  871SOL    HW3 3483   2.722   0.889   1.419  0.8660  0.0011  0.4941
  871SOL    MW4 3484   2.701   0.892   1.503  0.1346 -0.3249  0.3272
  872SOL     OW 3485   2.713   1.157   1.596 -0.5589 -0.6414 -0.0064
  872SOL    HW2 3486   2.702   1.066   1.570 -1.0540 -0.3943 -0.6670
  872SOL    HW3 3487   2.638   1.203   1.558 -0.5779 -0.0429  0.7335
  872SOL    MW4 3488   2.702   1.151   1.588 -0.6267 -0.5298  0.0041
  873SOL     OW 3489   2.962   1.255   1.477 -0.0380 -0.8990  0.0355
  873SOL    HW2 3490   3.039   1.216   1.516 -0.1528 -1.3820 -0.2158
  873SOL    HW3 3491   2.889   1.201   1.508 -0.2303 -0.7011 -0.0668
  873SOL    MW4 3492   2.962   1.243   1.486 -0.0786 -0.9366 -0.0112
  874SOL     OW 3493   2.921   1.514   1.593 -0.2225 -0.3402  0.0879
  874SOL    HW2 3494   2.829   1.530   1.574 -0.3373 -1.3394 -0.2363
  874SOL    HW3 3495   2.937   1.425   1.562  0.6331 -0.4889  0.9266
  874SOL    MW4 3496   2.911   1.504   1.586 -0.1248 -0.4916  0.1558
  875SOL     OW 3497   2.666   1.625   1.522  0.0798  0.2123  0.2470
  875SOL    HW2 3498   2.698   1.710   1.553  1.5673 -0.1855 -0.1370
  875SOL    HW3 3499   2.685   1.626   1.428 -2.3752  0.5266 -0.2644
  875SOL    MW4 3500   2.673   1.636   1.514 -0.0479  0.2013  0.1289
  876SOL     OW 3501   2.734   1.895   1.556 -0.6633  0.6186 -0.5224
  876SOL    HW2 3502   2.718   1.922   1.647 -0.6332  1.7527 -0.8471
  876SOL    HW3 3503   2.656   1.921   1.509 -1.6948 -2.0855 -0.4153
  876SOL    MW4 3504   2.722   1.902   1.562 -0.7955  0.4115 -0.5511
  877SOL     OW 3505   2.973   2.045   1.507  0.7900 -0.3612  0.3988
  877SOL    HW2 3506   2.958   2.130   1.548  1.3450 -0.5221  0.9535
  877SOL    HW3 3507   2.887   2.004   1.504  0.1411  1.0336 -1.7535
  877SOL    MW4 3508   2.960   2.051   1.512  0.7776 -0.1984  0.1880
  878SOL     OW 3509   2.936   2.321   1.591 -0.0461 -0.0726 -0.1797
  878SOL    HW2 3510   2.921   2.335   1.685 -0.2130 -0.8380 -0.0909
  878SOL    HW3 3511   2.852   2.346   1.550  0.4622  1.5674 -0.2632
  878SOL    MW4 3512   2.923   2.326   1.598 -0.0010  0.0428 -0.1790
  879SOL     OW 3513   2.672   2.427   1.520 -0.6185  0.2356  0.3800
  879SOL    HW2 3514   2.655   2.512   1.560 -1.1834  0.1954  0.2214
  879SOL    HW3 3515   2.598   2.372   1.547  0.5714 -0.6834  1.8680
  879SOL    MW4 3516   2.660   2.431   1.529 -0.5360  0.1090  0.5554
  880SOL     OW 3517   2.665   2.700   1.610  0.0155  0.5373  0.2843
  880SOL    HW2 3518   2.726   2.745   1.551 -0.6378  1.5414  0.3617
  880SOL    HW3 3519   2.579   2.734   1.585 -0.4634 -0.4910  0.5213
  880SOL    MW4 3520   2.662   2.710   1.599 -0.1339  0.5342  0.3258
  881SOL     OW 3521   2.875   2.839   1.477 -0.2842 -0.3020  0.3196
  881SOL    HW2 3522   2.954   2.793   1.505  0.8791  1.5315  0.1768
  881SOL    HW3 3523   2.879   2.923   1.523 -1.5206  0.2819 -0.6180
  881SOL    MW4 3524   2.886   2.844   1.487 -0.2939  0.0169  0.1771
  882SOL     OW 3525   2.899   3.075   1.626 -0.1816  0.5015  0.6942
  882SOL    HW2 3526   2.903   3.086   1.721  0.1266 -0.0037  0.7445
  882SOL    HW3 3527   2.983   3.109   1.595  0.4430 -0.8934  0.7764
  882SOL    MW4 3528   2.911   3.081   1.635 -0.0585  0.2508  0.7117
  883SOL     OW 3529   2.654   3.189   1.554 -0.3338  0.3672  0.0769
  883SOL    HW2 3530   2.738   3.159   1.588 -0.6138 -1.8916 -1.1709
  883SOL    HW3 3531   2.661   3.178   1.460 -2.8892 -2.1750  0.1241
  883SOL    MW4 3532   2.666   3.184   1.546 -0.7079 -0.2662 -0.0815
  884SOL     OW 3533   2.737   3.474   1.571 -0.1294 -0.1925  0.3670
  884SOL    HW2 3534   2.739   3.489   1.666  0.7566  0.0379  0.3175
  884SOL    HW3 3535   2.706   3.384   1.562  0.2807 -0.3960  0.9050
  884SOL    MW4 3536   2.734   3.464   1.583  0.0416 -0.1889  0.4314
  885SOL     OW 3537   2.960   3.586   1.497  0.3687 -0.7024 -0.0577
  885SOL    HW2 3538   2.885   3.533   1.525  0.4220 -0.5719  0.3306
  885SOL    HW3 3539   2.943   3.604   1.404  0.1528 -1.0673 -0.0922
  885SOL    MW4 3540   2.948   3.581   1.488  0.3472 -0.7334 -0.0110
  886SOL     OW 3541   2.967   3.858   1.595  0.0300 -0.2627 -0.6147
  886SOL    HW2 3542   2.885   3.903   1.574  0.8067  0.2196 -2.7022
  886SOL    HW3 3543   2.960   3.773   1.551 -0.2002 -1.0556  0.9147
  886SOL    MW4 3544   2.955   3.852   1.587  0.1021 -0.3036 -0.6883
  887SOL     OW 3545   2.737   3.991   1.547 -0.4761  0.2242 -0.5460
  887SOL    HW2 3546   2.717   4.078   1.582  0.0235 -0.5091  1.6509
  887SOL    HW3 3547   2.737   4.002   1.452  0.5496  2.8185 -0.2615
  887SOL    MW4 3548   2.734   4.004   1.539 -0.2749  0.4698 -0.2186
  888SOL     OW 3549   2.674   4.250   1.638 -0.6014 -0.0795 -0.2008
  888SOL    HW2 3550   2.756   4.290   1.612  0.0257 -0.4150  1.1849
  888SOL    HW3 3551   2.606   4.304   1.598  0.2305  2.1645  1.3318
  888SOL    MW4 3552   2.676   4.262   1.629 -0.4089  0.1723  0.1843
  889SOL     OW 3553   2.910   4.376   1.575  0.0309 -0.5476 -0.0908
  889SOL    HW2 3554   2.916   4.468   1.603  0.4728 -0.2947 -1.0147
  889SOL    HW3 3555   2.893   4.381   1.481  4.4091 -1.4091 -1.0431
  889SOL    MW4 3556   2.908   4.389   1.566  0.6669 -0.6279 -0.3384
  890SOL     OW 3557   3.365   4.600   1.625  0.7852  0.4715 -0.2073
  890SOL    HW2 3558   3.439   4.623   1.570 -0.3391  0.2973 -1.8126
  890SOL    HW3 3559   3.333   4.517   1.589  0.4469 -0.0029  1.1350
  890SOL    MW4 3560   3.370   4.592   1.613  0.5922  0.3860 -0.2420
  891SOL     OW 3561   3.147   0.075   1.510 -0.0673 -0.0527  0.0299
  891SOL    HW2 3562   3.223   0.021   1.532  0.0297 -0.4624 -1.2575
  891SOL    HW3 3563   3.076   0.038   1.562  0.5367  0.1327  1.0014
  891SOL    MW4 3564   3.148   0.063   1.520  0.0252 -0.0823 -0.0118
  892SOL     OW 3565   3.152   0.326   1.626 -0.0258 -0.8284 -0.0454
  892SOL    HW2 3566   3.164   0.238   1.590 -0.8824 -0.4161 -1.3610
  892SOL    HW3 3567   3.063   0.350   1.601 -0.0774  0.0918  1.0202
  892SOL    MW4 3568   3.142   0.318   1.618 -0.1456 -0.6526 -0.0784
  893SOL     OW 3569   3.380   0.442   1.501 -0.2243  0.3626  0.2906
  893SOL    HW2 3570   3.296   0.406   1.530 -0.6566  0.5915 -0.6280
  893SOL    HW3 3571   3.371   0.447   1.406  0.5732  1.0460  0.2491
  893SOL    MW4 3572   3.367   0.438   1.492 -0.1762  0.4830  0.1640
  894SOL     OW 3573   3.396   0.743   1.557  0.1634  0.1971 -0.2453
  894SOL    HW2 3574   3.389   0.757   1.652 -1.1702 -0.8725 -0.1669
  894SOL    HW3 3575   3.393   0.648   1.547 -2.2146  0.3584 -1.5083
  894SOL    MW4 3576   3.395   0.733   1.568 -0.3263  0.0773 -0.4016
  895SOL     OW 3577   3.155   0.860   1.492  0.2012 -0.3830  0.2947
  895SOL    HW2 3578   3.235   0.810   1.509  0.4607 -0.0533  0.0543
  895SOL    HW3 3579   3.087   0.814   1.541  0.5154 -0.7371  0.4008
  895SOL    MW4 3580   3.157   0.848   1.501  0.2769 -0.3862  0.2769
  896SOL     OW 3581   3.196   1.143   1.568  0.0474  0.6836 -0.4893
  896SOL    HW2 3582   3.211   1.144   1.663 -0.7589  0.9745 -0.3609
  896SOL    HW3 3583   3.165   1.054   1.550  0.1852  0.6333 -0.4786
  896SOL    MW4 3584   3.194   1.131   1.578 -0.0408  0.7154 -0.4710
  897SOL     OW 3585   3.411   1.277   1.471 -0.4274 -0.1912 -0.1223
  897SOL    HW2 3586   3.482   1.222   1.505 -0.0632  0.5082  0.2523
  897SOL    HW3 3587   3.331   1.235   1.501 -0.2505 -2.0266 -2.0721
  897SOL    MW4 3588   3.410   1.264   1.479 -0.3560 -0.3411 -0.3302
  898SOL     OW 3589   3.382   1.537   1.587  0.1633  0.3916 -0.6013
  898SOL    HW2 3590   3.391   1.529   1.682 -0.4547  1.6502 -0.4255
  898SOL    HW3 3591   3.419   1.456   1.553  1.5096  0.4549  0.6457
  898SOL    MW4 3592   3.388   1.525   1.595  0.2594  0.5660 -0.4135
  899SOL     OW 3593   3.161   1.613   1.451  0.2340 -0.7323  0.2535
  899SOL    HW2 3594   3.242   1.573   1.481  0.0734  0.6058  2.5237
  899SOL    HW3 3595   3.092   1.556   1.485  0.0664  0.6023  2.2214
  899SOL    MW4 3596   3.163   1.600   1.459  0.1907 -0.3797  0.8127
  900SOL     OW 3597   3.173   1.893   1.609  0.0681  0.2324 -0.2738
  900SOL    HW2 3598   3.162   1.809   1.566 -1.2825 -0.0547  0.6145
  900SOL    HW3 3599   3.101   1.947   1.576 -0.2133  0.4211  0.6310
  900SOL    MW4 3600   3.162   1.889   1.599 -0.1472  0.2194 -0.0372
  901SOL     OW 3601   3.400   2.025   1.510  0.1147  0.3441  0.0295
  901SOL    HW2 3602   3.321   1.983   1.544  1.5130 -1.2636  1.4357
  901SOL    HW3 3603   3.387   2.028   1.416 -2.4456  1.8912  0.3982
  901SOL    MW4 3604   3.388   2.020   1.502 -0.0386  0.3361  0.2637
  902SOL     OW 3605   3.374   2.281   1.567 -0.2556  0.3249 -0.2858
  902SOL    HW2 3606   3.442   2.332   1.524 -1.4248  1.5123 -0.7731
  902SOL    HW3 3607   3.397   2.190   1.550  0.1147  0.7538 -2.1325
  902SOL    MW4 3608   3.386   2.276   1.559 -0.3610  0.5381 -0.5938
  903SOL     OW 3609   3.160   2.433   1.467 -0.3880  0.3313  0.2771
  903SOL    HW2 3610   3.238   2.387   1.498  0.0517  0.0864 -1.1770
  903SOL    HW3 3611   3.087   2.386   1.507  0.1416 -0.3103  0.4905
  903SOL    MW4 3612   3.161   2.421   1.477 -0.2601  0.2143  0.1134
  904SOL     OW 3613   3.103   2.698   1.559  0.5117  0.6742 -0.8546
  904SOL    HW2 3614   3.181   2.749   1.536  0.7022  0.5710 -0.4401
  904SOL    HW3 3615   3.121   2.610   1.524  1.3220  0.1973  0.7206
  904SOL    MW4 3616   3.116   2.693   1.551  0.6437  0.5976 -0.5921
  905SOL     OW 3617   3.347   2.824   1.497 -1.4075 -0.4103  0.3179
  905SOL    HW2 3618   3.358   2.918   1.511  0.4084 -0.4681 -0.6658
  905SOL    HW3 3619   3.328   2.815   1.404  0.4532 -1.1725 -0.0133
  905SOL    MW4 3620   3.346   2.835   1.487 -0.9224 -0.5185  0.1444
  906SOL     OW 3621   3.370   3.096   1.587  0.1925  0.2206 -0.1415
  906SOL    HW2 3622   3.376   3.120   1.680 -0.0698  1.0834 -0.3431
  906SOL    HW3 3623   3.446   3.137   1.546 -0.3149  0.8158 -0.5052
  906SOL    MW4 3624   3.381   3.104   1.594  0.0909  0.4130 -0.2161
  907SOL     OW 3625   3.128   3.203   1.556 -0.0872  0.2448 -0.3989
  907SOL    HW2 3626   3.206   3.151   1.576  1.0900  1.9033 -0.5472
  907SOL    HW3 3627   3.121   3.199   1.460 -0.1309  0.1529 -0.3913
  907SOL    MW4 3628   3.137   3.196   1.546  0.0623  0.4515 -0.4174
  908SOL     OW 3629   3.178   3.457   1.596  0.0939 -0.0793  0.1163
  908SOL    HW2 3630   3.163   3.362   1.589 -0.9517 -0.0851  1.9460
  908SOL    HW3 3631   3.096   3.496   1.566 -0.2692  0.1740  1.4240
  908SOL    MW4 3632   3.165   3.449   1.591 -0.0919 -0.0467  0.5302
  909SOL     OW 3633   3.392   3.611   1.511 -0.1557  0.3486  0.1219
  909SOL    HW2 3634   3.475   3.582   1.549  0.2560  0.4501 -0.6869
  909SOL    HW3 3635   3.327   3.548   1.543  0.5457 -0.8204 -0.7340
  909SOL    MW4 3636   3.394   3.599   1.520 -0.0088  0.2078 -0.0977
  910SOL     OW 3637   3.389   3.867   1.605  0.1658  0.3848 -0.0042
  910SOL    HW2 3638   3.321   3.916   1.559  1.4282  0.3450 -1.9787
  910SOL    HW3 3639   3.381   3.778   1.572  0.1393  0.0295  0.9606
  910SOL    MW4 3640   3.379   3.862   1.595  0.3288  0.3327 -0.1374
  911SOL     OW 3641   3.171   3.989   1.487  0.0029 -0.1524 -0.0218
  911SOL    HW2 3642   3.170   4.076   1.527 -1.4134  0.0922 -0.5657
  911SOL    HW3 3643   3.090   3.948   1.516  0.0006 -0.7692 -0.8926
  911SOL    MW4 3644   3.160   3.995   1.496 -0.1843 -0.2015 -0.2085
  912SOL     OW 3645   3.150   4.237   1.618 -0.0909  0.3188  0.5060
  912SOL    HW2 3646   3.157   4.262   1.710 -1.1420 -1.7809  1.1780
  912SOL    HW3 3647   3.071   4.282   1.588  0.4516  1.2989  0.5108
  912SOL    MW4 3648   3.141   4.246   1.626 -0.1580  0.1711  0.5953
  913SOL     OW 3649   3.339   4.361   1.485 -0.2888 -0.4096 -0.2912
  913SOL    HW2 3650   3.259   4.322   1.519  0.0741 -0.5138  0.4529
  913SOL    HW3 3651   3.319   4.381   1.394 -1.9987  1.7971  0.5084
  913SOL    MW4 3652   3.326   4.359   1.478 -0.4665 -0.1322 -0.0875
  914SOL     OW 3653   3.834   4.639   1.596 -0.0211 -0.1249  0.1871
  914SOL    HW2 3654   3.841   4.648   1.691 -0.6089 -0.1267  0.2322
  914SOL    HW3 3655   3.909   4.688   1.562  0.8360 -1.0600  0.6928
  914SOL    MW4 3656   3.845   4.647   1.604  0.0144 -0.2485  0.2598
  915SOL     OW 3657   3.582   0.044   1.503 -0.6366 -0.6165  0.0047
  915SOL    HW2 3658   3.673   0.021   1.522 -0.3671  0.7992  0.4700
  915SOL    HW3 3659   3.575   0.039   1.408  0.0885 -0.1468 -0.0765
  915SOL    MW4 3660   3.593   0.040   1.493 -0.5054 -0.3677  0.0554
  916SOL     OW 3661   3.609   0.325   1.603  0.1708  0.0514 -0.0105
  916SOL    HW2 3662   3.605   0.234   1.575  0.0753 -0.1013  0.4910
  916SOL    HW3 3663   3.524   0.361   1.578  0.4223  0.1578 -0.7258
  916SOL    MW4 3664   3.597   0.318   1.596  0.1914  0.0453 -0.0387
  917SOL     OW 3665   3.813   0.472   1.482  0.1255  0.5502  0.4272
  917SOL    HW2 3666   3.734   0.434   1.520 -0.6014  0.5900 -0.9904
  917SOL    HW3 3667   3.798   0.469   1.387  1.5763  1.0967  0.1576
  917SOL    MW4 3668   3.801   0.467   1.474  0.2210  0.6275  0.2046
  918SOL     OW 3669   3.837   0.741   1.592  0.2050  0.3131 -0.5895
  918SOL    HW2 3670   3.755   0.789   1.580  0.4377  1.1007  0.8154
  918SOL    HW3 3671   3.824   0.658   1.546 -0.6625  1.2133 -2.0096
  918SOL    MW4 3672   3.824   0.737   1.584  0.1213  0.5357 -0.5915
  919SOL     OW 3673   3.613   0.883   1.507  0.1040 -0.4477  0.1547
  919SOL    HW2 3674   3.527   0.843   1.520  0.5256 -1.2283  0.5460
  919SOL    HW3 3675   3.620   0.893   1.412 -1.0885  1.1049  0.2140
  919SOL    MW4 3676   3.603   0.879   1.496  0.0023 -0.3458  0.2141
  920SOL     OW 3677   3.611   1.135   1.596  0.2694 -0.1815  0.0127
  920SOL    HW2 3678   3.687   1.179   1.559 -0.7633  0.3505 -1.5367
  920SOL    HW3 3679   3.622   1.043   1.574  0.3253 -0.0601 -0.4700
  920SOL    MW4 3680   3.622   1.129   1.588  0.1405 -0.0953 -0.2554
  921SOL     OW 3681   3.831   1.254   1.466  0.2274  0.0253 -0.3980
  921SOL    HW2 3682   3.903   1.217   1.517 -0.3242 -2.0982 -1.0998
  921SOL    HW3 3683   3.831   1.347   1.488  2.5407 -0.1254  0.3619
  921SOL    MW4 3684   3.840   1.261   1.476  0.4598 -0.2748 -0.3903
  922SOL     OW 3685   3.824   1.512   1.570  0.0174 -0.2566 -0.3896
  922SOL    HW2 3686   3.825   1.529   1.664  0.3250 -0.2299 -0.3963
  922SOL    HW3 3687   3.750   1.563   1.536  0.4649  0.4572 -0.2985
  922SOL    MW4 3688   3.814   1.521   1.578  0.1171 -0.1589 -0.3784
  923SOL     OW 3689   3.605   1.667   1.469 -0.2744  0.0419 -0.6350
  923SOL    HW2 3690   3.521   1.629   1.494 -0.0642 -0.1337 -0.1968
  923SOL    HW3 3691   3.609   1.656   1.374 -0.6282 -0.1889 -0.6214
  923SOL    MW4 3692   3.595   1.661   1.460 -0.2934 -0.0117 -0.5754
  924SOL     OW 3693   3.620   1.895   1.607 -0.4411  0.2846 -0.0917
  924SOL    HW2 3694   3.619   1.816   1.553  2.1070  0.2023 -0.0686
  924SOL    HW3 3695   3.540   1.942   1.583 -1.4712 -1.8019 -0.8258
  924SOL    MW4 3696   3.609   1.891   1.597 -0.2408 -0.0015 -0.1855
  925SOL     OW 3697   3.804   2.012   1.450 -0.4950  0.3502 -0.1830
  925SOL    HW2 3698   3.790   2.103   1.475 -0.1586  0.3742 -0.0745
  925SOL    HW3 3699   3.746   1.962   1.508 -0.7186  0.4961 -0.2782
  925SOL    MW4 3700   3.794   2.017   1.461 -0.4801  0.3726 -0.1812
  926SOL     OW 3701   3.782   2.281   1.566  0.4158 -0.0346 -0.6746
  926SOL    HW2 3702   3.775   2.287   1.661  0.7649  0.4020 -0.6756
  926SOL    HW3 3703   3.871   2.312   1.547  0.5090 -0.5491 -1.1009
  926SOL    MW4 3704   3.793   2.286   1.576  0.4742 -0.0449 -0.7310
  927SOL     OW 3705   3.587   2.422   1.421  0.4100 -0.4148 -0.8108
  927SOL    HW2 3706   3.581   2.504   1.468  0.3753 -0.4231 -0.8014
  927SOL    HW3 3707   3.668   2.382   1.453  0.7940 -0.0616 -1.3239
  927SOL    MW4 3708   3.597   2.427   1.431  0.4561 -0.3693 -0.8773
  928SOL     OW 3709   3.587   2.674   1.585  0.0096 -0.5654  0.3024
  928SOL    HW2 3710   3.589   2.676   1.680  0.2288  1.0189  0.2845
  928SOL    HW3 3711   3.511   2.726   1.561  0.4226 -0.2636 -0.3926
  928SOL    MW4 3712   3.578   2.681   1.594  0.0930 -0.3165  0.2083
  929SOL     OW 3713   3.817   2.820   1.489  0.4824 -0.1094  0.4093
  929SOL    HW2 3714   3.884   2.772   1.539 -0.5464 -0.3221  1.6115
  929SOL    HW3 3715   3.734   2.783   1.520 -0.1908  0.0955 -1.1319
  929SOL    MW4 3716   3.815   2.809   1.500  0.2579 -0.1105  0.3645
  930SOL     OW 3717   3.805   3.088   1.611 -0.7124 -0.3327 -0.2718
  930SOL    HW2 3718   3.879   3.127   1.565 -0.4076  0.6436  1.0211
  930SOL    HW3 3719   3.806   2.996   1.584  0.5738 -0.1830 -0.7684
  930SOL    MW4 3720   3.815   3.081   1.602 -0.5025 -0.1841 -0.1667
  931SOL     OW 3721   3.587   3.239   1.501  0.3253 -0.1267  0.1230
  931SOL    HW2 3722   3.660   3.186   1.533 -0.4120 -1.3405 -0.1781
  931SOL    HW3 3723   3.588   3.227   1.406 -0.7979 -0.8462  0.1945
  931SOL    MW4 3724   3.597   3.231   1.493  0.0798 -0.3817  0.0927
  932SOL     OW 3725   3.624   3.491   1.633  0.1361  0.3627 -0.0853
  932SOL    HW2 3726   3.678   3.560   1.594 -0.6828  0.4331 -1.1102
  932SOL    HW3 3727   3.633   3.417   1.573  0.7301 -0.3276  0.8273
  932SOL    MW4 3728   3.633   3.490   1.620  0.1064  0.2809 -0.1001
  933SOL     OW 3729   3.805   3.625   1.477 -0.0208  0.0872 -0.0385
  933SOL    HW2 3730   3.885   3.607   1.526  0.0458  0.5050  0.0094
  933SOL    HW3 3731   3.788   3.718   1.492  0.2979  0.3530 -1.2424
  933SOL    MW4 3732   3.813   3.635   1.486  0.0301  0.1774 -0.1910
  934SOL     OW 3733   3.749   3.866   1.581 -0.2744 -0.2571  0.3106
  934SOL    HW2 3734   3.829   3.901   1.542 -0.3093  0.0610  0.5295
  934SOL    HW3 3735   3.679   3.921   1.545 -0.2133  0.7030  1.6233
  934SOL    MW4 3736   3.750   3.878   1.571 -0.2709 -0.0885  0.5127
  935SOL     OW 3737   3.539   4.005   1.426 -0.4610  0.4970  0.3988
  935SOL    HW2 3738   3.547   4.086   1.476  0.2323 -0.8474  2.5652
  935SOL    HW3 3739   3.478   3.951   1.477 -0.9014 -0.3552 -0.9940
  935SOL    MW4 3740   3.532   4.008   1.439 -0.4276  0.2072  0.5009
  936SOL     OW 3741   3.554   4.246   1.596  0.5544  0.3266  0.1626
  936SOL    HW2 3742   3.552   4.270   1.689 -1.4810  0.0901  0.1983
  936SOL    HW3 3743   3.471   4.279   1.561  0.0403 -2.0111 -0.9361
  936SOL    MW4 3744   3.543   4.253   1.604  0.2180 -0.0131  0.0223
  937SOL     OW 3745   3.759   4.411   1.482  0.4109 -0.2330 -0.2878
  937SOL    HW2 3746   3.696   4.383   1.549 -0.1190 -0.2930 -0.8031
  937SOL    HW3 3747   3.798   4.491   1.518 -0.7717  0.4285 -0.4482
  937SOL    MW4 3748   3.756   4.418   1.496  0.1850 -0.1536 -0.3769
  938SOL     OW 3749   4.260   4.628   1.602 -0.3446 -0.0600  0.0367
  938SOL    HW2 3750   4.267   4.636   1.697 -0.0518  0.7836 -0.0548
  938SOL    HW3 3751   4.230   4.538   1.588  1.9545 -0.9709  0.8056
  938SOL    MW4 3752   4.257   4.617   1.613 -0.0026 -0.0689  0.1261
  939SOL     OW 3753   4.053   0.101   1.493  0.2742  0.3599  0.2487
  939SOL    HW2 3754   4.061   0.183   1.542  0.8996  0.9551 -0.8481
  939SOL    HW3 3755   4.136   0.056   1.508 -0.4687 -0.5800  1.7213
  939SOL    MW4 3756   4.065   0.106   1.502  0.2587  0.3145  0.2983
  940SOL     OW 3757   4.037   0.338   1.617  0.4045  0.6187  0.2811
  940SOL    HW2 3758   4.060   0.355   1.709 -0.4844  0.0009  0.6276
  940SOL    HW3 3759   3.962   0.394   1.601 -0.8490 -0.9423  0.6151
  940SOL    MW4 3760   4.030   0.348   1.627  0.1218  0.3312  0.3709
  941SOL     OW 3761   4.241   0.482   1.497  0.1055 -0.1337 -0.1132
  941SOL    HW2 3762   4.169   0.425   1.524 -0.9891  1.7411  1.0797
  941SOL    HW3 3763   4.317   0.450   1.546 -0.3383 -0.9697  0.0403
  941SOL    MW4 3764   4.242   0.470   1.507 -0.0974  0.0034  0.0645
  942SOL     OW 3765   4.241   0.737   1.604 -0.4577 -0.6184 -0.1256
  942SOL    HW2 3766   4.231   0.658   1.552  0.1646 -0.4480 -0.5131
  942SOL    HW3 3767   4.320   0.779   1.569 -1.5273  0.8723 -0.8297
  942SOL    MW4 3768   4.250   0.732   1.593 -0.5168 -0.3992 -0.2696
  943SOL     OW 3769   4.049   0.899   1.500  0.6784 -0.2021 -0.0712
  943SOL    HW2 3770   4.119   0.856   1.549 -0.4932 -2.5307 -0.3391
  943SOL    HW3 3771   3.970   0.852   1.527 -0.6826  1.8643 -0.3601
  943SOL    MW4 3772   4.048   0.887   1.510  0.3442 -0.2367 -0.1447
  944SOL     OW 3773   4.043   1.150   1.601  0.1101 -0.1921  0.1923
  944SOL    HW2 3774   4.039   1.143   1.696 -3.0860  0.0380  0.1470
  944SOL    HW3 3775   4.031   1.061   1.570  1.2732 -0.2839 -0.0121
  944SOL    MW4 3776   4.041   1.138   1.609 -0.1582 -0.1738  0.1594
  945SOL     OW 3777   4.266   1.277   1.485  0.1829  0.1718 -0.1269
  945SOL    HW2 3778   4.192   1.227   1.518  0.1424  0.7225  0.6227
  945SOL    HW3 3779   4.341   1.244   1.534  0.2436  0.4599 -0.0232
  945SOL    MW4 3780   4.266   1.266   1.496  0.1856  0.2825 -0.0143
  946SOL     OW 3781   4.276   1.527   1.570  0.3448  0.0499 -0.3732
  946SOL    HW2 3782   4.283   1.441   1.528  1.0128 -0.2506  0.3308
  946SOL    HW3 3783   4.354   1.575   1.540 -0.3394  0.6236 -1.2389
  946SOL    MW4 3784   4.287   1.522   1.560  0.3427  0.0860 -0.3946
  947SOL     OW 3785   4.045   1.646   1.471  0.5274 -0.1603  0.2046
  947SOL    HW2 3786   4.125   1.600   1.497  0.6210  0.5466  1.1926
  947SOL    HW3 3787   3.974   1.594   1.508  0.5461 -0.4889 -0.2122
  947SOL    MW4 3788   4.046   1.633   1.479  0.5422 -0.1104  0.2800
  948SOL     OW 3789   4.042   1.914   1.572  0.4256 -0.0258  0.1531
  948SOL    HW2 3790   4.036   1.820   1.551 -1.6121 -0.4066  2.3154
  948SOL    HW3 3791   3.960   1.951   1.541  1.5918  1.2604 -1.5003
  948SOL    MW4 3792   4.030   1.906   1.565  0.3106  0.0936  0.2202
  949SOL     OW 3793   4.275   2.035   1.524 -0.4426 -0.2519  0.2247
  949SOL    HW2 3794   4.181   2.015   1.525 -0.4370 -0.3807 -0.7123
  949SOL    HW3 3795   4.298   2.035   1.431  0.6631 -1.0286  0.4814
  949SOL    MW4 3796   4.266   2.032   1.512 -0.2960 -0.3714  0.1350
  950SOL     OW 3797   4.242   2.298   1.606  0.8461 -0.2608  0.1686
  950SOL    HW2 3798   4.240   2.300   1.702  1.2129 -0.7283  0.1873
  950SOL    HW3 3799   4.255   2.206   1.584  0.0329 -0.2518 -0.3477
  950SOL    MW4 3800   4.243   2.286   1.616  0.7872 -0.3213  0.1029
  951SOL     OW 3801   4.011   2.395   1.486  0.1635  0.0224  0.3337
  951SOL    HW2 3802   4.018   2.484   1.522 -1.3151 -0.5792  2.2179
  951SOL    HW3 3803   4.094   2.354   1.508  1.2879  1.2566 -1.5049
  951SOL    MW4 3804   4.023   2.402   1.494  0.1168  0.1058  0.3397
  952SOL     OW 3805   4.021   2.645   1.590  0.0086 -0.2248 -0.2331
  952SOL    HW2 3806   4.039   2.672   1.680 -0.0783  0.7250 -0.4935
  952SOL    HW3 3807   4.076   2.703   1.537  0.2056 -0.9126 -0.7827
  952SOL    MW4 3808   4.031   2.656   1.595  0.0231 -0.1902 -0.3400
  953SOL     OW 3809   4.174   2.815   1.439 -0.2034  0.3621 -0.0852
  953SOL    HW2 3810   4.201   2.906   1.454 -0.5236  0.5938 -0.8494
  953SOL    HW3 3811   4.208   2.795   1.351  1.0205 -0.7075  0.6172
  953SOL    MW4 3812   4.182   2.824   1.429 -0.0842  0.2516 -0.0934
  954SOL     OW 3813   4.244   3.094   1.561 -0.5330 -0.1624  0.1818
  954SOL    HW2 3814   4.237   3.088   1.656  0.0363  2.5644  0.4347
  954SOL    HW3 3815   4.318   3.153   1.546 -2.8072  2.2506 -1.8943
  954SOL    MW4 3816   4.253   3.101   1.571 -0.7580  0.5157 -0.0587
  955SOL     OW 3817   4.014   3.223   1.478 -0.1340 -0.3035  0.3976
  955SOL    HW2 3818   4.015   3.314   1.508  0.9150  0.0887 -0.8185
  955SOL    HW3 3819   4.102   3.190   1.498  0.0923 -0.4812 -0.8720
  955SOL    MW4 3820   4.026   3.230   1.485  0.0342 -0.2752  0.0697
  956SOL     OW 3821   4.028   3.503   1.573 -0.1230  0.5268  0.0800
  956SOL    HW2 3822   4.033   3.490   1.667 -0.6962  2.5141  0.4233
  956SOL    HW3 3823   4.112   3.543   1.550  0.9859 -2.1438 -0.6754
  956SOL    MW4 3824   4.040   3.507   1.582 -0.0524  0.4366  0.0256
  957SOL     OW 3825   4.257   3.604   1.489 -0.4571 -0.6408  0.1605
  957SOL    HW2 3826   4.261   3.590   1.395 -1.3695 -1.0033  0.1707
  957SOL    HW3 3827   4.250   3.699   1.499 -1.0271 -0.6446 -0.1708
  957SOL    MW4 3828   4.257   3.615   1.478 -0.6527 -0.6891  0.1182
  958SOL     OW 3829   4.257   3.863   1.562 -0.2390 -0.6466  0.3139
  958SOL    HW2 3830   4.176   3.909   1.539  1.7902  2.0268 -1.7831
  958SOL    HW3 3831   4.326   3.913   1.519  2.5056 -3.2180  1.5632
  958SOL    MW4 3832   4.255   3.876   1.553  0.3908 -0.6331  0.2021
  959SOL     OW 3833   3.999   3.967   1.514 -0.2684  0.8939  0.1553
  959SOL    HW2 3834   3.982   4.059   1.533 -2.0052  0.8421 -1.0460
  959SOL    HW3 3835   3.996   3.961   1.419  0.5419 -0.2758  0.1935
  959SOL    MW4 3836   3.996   3.978   1.504 -0.3906  0.7327  0.0018
  960SOL     OW 3837   3.951   4.236   1.597  0.2934 -0.1339  0.0942
  960SOL    HW2 3838   3.964   4.255   1.690 -1.8105  1.1306  0.1589
  960SOL    HW3 3839   3.885   4.299   1.568  0.4005 -0.9713 -2.0988
  960SOL    MW4 3840   3.944   4.247   1.605  0.0300 -0.0775 -0.1866
  961SOL     OW 3841   4.213   4.345   1.561  0.3569  0.1940 -0.3835
  961SOL    HW2 3842   4.137   4.297   1.593  0.8756  0.5228  1.4355
  961SOL    HW3 3843   4.203   4.348   1.466 -1.2891 -0.7706 -0.2425
  961SOL    MW4 3844   4.202   4.339   1.553  0.2082  0.1101 -0.1249
  962SOL     OW 3845   0.258   4.663   1.949  0.3268  0.1615 -0.1041
  962SOL    HW2 3846   0.343   4.698   1.976  0.0566  0.3432  0.5351
  962SOL    HW3 3847   0.264   4.655   1.854  1.2489 -0.3337 -0.0076
  962SOL    MW4 3848   0.270   4.666   1.940  0.4128  0.1201 -0.0070
  963SOL     OW 3849   0.013   0.126   1.998  0.4078  0.3531 -0.3558
  963SOL    HW2 3850   0.017   0.206   1.946  1.3830  0.3276 -0.3221
  963SOL    HW3 3851   0.098   0.085   1.986  0.5797  0.2532  1.1145
  963SOL    MW4 3852   0.025   0.131   1.990  0.5592  0.3365 -0.1573
  964SOL     OW 3853   0.022   0.361   1.863 -0.5661  0.0410 -0.1670
  964SOL    HW2 3854  -0.048   0.415   1.898 -0.7634  0.3462 -1.0194
  964SOL    HW3 3855   0.102   0.394   1.905 -0.9492 -0.4357  0.9486
  964SOL    MW4 3856   0.024   0.372   1.873 -0.6427  0.0184 -0.1323
  965SOL     OW 3857   0.246   0.457   1.993  0.0930 -0.2881 -0.4970
  965SOL    HW2 3858   0.312   0.411   1.942 -0.5864  0.0306 -1.6782
  965SOL    HW3 3859   0.247   0.547   1.959 -0.6514 -0.1804 -0.2507
  965SOL    MW4 3860   0.255   0.463   1.982 -0.0948 -0.2319 -0.6204
  966SOL     OW 3861   0.222   0.704   1.914 -0.0587  0.5501  0.5313
  966SOL    HW2 3862   0.309   0.739   1.931  0.8777 -1.8232  0.8081
  966SOL    HW3 3863   0.210   0.713   1.820  1.3238 -0.8931  0.1891
  966SOL    MW4 3864   0.232   0.710   1.904  0.2473  0.0466  0.5227
  967SOL     OW 3865   0.014   0.883   1.966  0.0638 -0.2141 -0.0792
  967SOL    HW2 3866  -0.049   0.838   1.909  0.0315 -0.4071  0.1096
  967SOL    HW3 3867   0.087   0.822   1.974  0.5690  0.2847 -0.8374
  967SOL    MW4 3868   0.015   0.869   1.959  0.1262 -0.1738 -0.1543
  968SOL     OW 3869   0.023   1.153   1.888  0.3706 -0.7187 -0.5238
  968SOL    HW2 3870  -0.060   1.191   1.916  1.2172 -0.6335  2.0948
  968SOL    HW3 3871   0.019   1.063   1.920  0.5628 -1.2593 -1.9922
  968SOL    MW4 3872   0.011   1.146   1.896  0.5076 -0.7788 -0.3720
  969SOL     OW 3873   0.225   1.315   1.993 -0.0273 -0.3036 -0.3805
  969SOL    HW2 3874   0.235   1.396   1.943  0.6479  0.0680  0.3464
  969SOL    HW3 3875   0.149   1.271   1.953 -0.4640  0.7310 -0.7040
  969SOL    MW4 3876   0.216   1.320   1.981  0.0042 -0.1180 -0.3273
  970SOL     OW 3877   0.242   1.551   1.838 -0.1103 -0.1988 -0.2248
  970SOL    HW2 3878   0.320   1.592   1.875 -0.0250 -0.6072  0.0397
  970SOL    HW3 3879   0.169   1.591   1.886 -0.0811  0.3011 -0.5814
  970SOL    MW4 3880   0.243   1.562   1.849 -0.0952 -0.1868 -0.2370
  971SOL     OW 3881   0.052   1.663   1.982  0.1088 -0.5423 -0.2110
  971SOL    HW2 3882   0.034   1.668   2.076 -0.1408  0.7127 -0.3172
  971SOL    HW3 3883  -0.023   1.617   1.945 -1.2127  1.5156 -0.1702
  971SOL    MW4 3884   0.040   1.657   1.989 -0.0985 -0.1052 -0.2196
  972SOL     OW 3885   0.050   1.938   1.880 -0.3751  0.0933  0.0690
  972SOL    HW2 3886  -0.036   1.974   1.901  0.2846  0.6488  1.8444
  972SOL    HW3 3887   0.043   1.845   1.901 -0.7082  0.0310 -0.3164
  972SOL    MW4 3888   0.038   1.930   1.885 -0.3320  0.1584  0.2524
  973SOL     OW 3889   0.272   2.065   1.989  0.2651 -0.2455  0.5505
  973SOL    HW2 3890   0.264   2.156   1.959  2.0707 -0.2259  0.0622
  973SOL    HW3 3891   0.200   2.019   1.947  0.5125  0.5647 -0.7789
  973SOL    MW4 3892   0.261   2.071   1.979  0.5360 -0.1360  0.3106
  974SOL     OW 3893   0.241   2.310   1.832  0.5084 -0.0578  0.0372
  974SOL    HW2 3894   0.312   2.370   1.857  2.2692 -1.3426 -1.7230
  974SOL    HW3 3895   0.161   2.354   1.862  1.8812  2.3549  0.3305
  974SOL    MW4 3896   0.240   2.324   1.839  0.9218  0.0910 -0.1564
  975SOL     OW 3897   0.006   2.458   1.925 -0.5093 -0.1722  0.2228
  975SOL    HW2 3898   0.009   2.474   2.019  0.9673  0.2216  0.1271
  975SOL    HW3 3899  -0.001   2.546   1.886 -1.0756 -0.3296 -0.0359
  975SOL    MW4 3900   0.005   2.472   1.932 -0.3892 -0.1410  0.1761
  976SOL     OW 3901   4.486   2.715   1.840  0.0976 -0.0807 -0.0659
  976SOL    HW2 3902   4.417   2.770   1.877 -1.5574 -0.9566 -1.8008
  976SOL    HW3 3903   4.473   2.721   1.745  1.5929 -1.3013 -0.3653
  976SOL    MW4 3904   4.475   2.723   1.832  0.0765 -0.3573 -0.3343
  977SOL     OW 3905   0.205   2.842   1.977 -0.1446  0.1760 -0.0116
  977SOL    HW2 3906   0.199   2.936   1.961 -1.2124  0.2106  0.5901
  977SOL    HW3 3907   0.143   2.803   1.915 -1.1940  0.0174  1.1161
  977SOL    MW4 3908   0.196   2.849   1.967 -0.4239  0.1596  0.2165
  978SOL     OW 3909   0.178   3.112   1.880 -0.2269 -0.5893 -0.3959
  978SOL    HW2 3910   0.264   3.138   1.914 -0.6360  0.3255 -0.0348
  978SOL    HW3 3911   0.192   3.098   1.787 -0.0645  1.3321 -0.6817
  978SOL    MW4 3912   0.191   3.113   1.872 -0.2594 -0.2151 -0.3859
  979SOL     OW 3913   4.438   3.267   1.961  0.0286  0.2598 -0.4704
  979SOL    HW2 3914   4.356   3.244   1.919 -0.8441  1.0527  0.7620
  979SOL    HW3 3915   4.505   3.222   1.910 -1.2651 -1.3852 -0.7368
  979SOL    MW4 3916   4.436   3.258   1.949 -0.2572  0.1474 -0.3430
  980SOL     OW 3917   4.469   3.537   1.880 -0.2880 -0.3666 -0.2823
  980SOL    HW2 3918   4.554   3.568   1.911 -1.3403  2.1463  0.1487
  980SOL    HW3 3919   4.467   3.445   1.905  2.1909 -0.4023 -0.0584
  980SOL    MW4 3920   4.480   3.529   1.887 -0.0998 -0.0398 -0.1959
  981SOL     OW 3921   0.233   3.619   1.974 -0.5378  0.0855  0.0107
  981SOL    HW2 3922   0.225   3.608   2.069 -0.4268 -0.5877 -0.0587
  981SOL    HW3 3923   0.306   3.563   1.949  0.2685  1.2639 -0.2933
  981SOL    MW4 3924   0.241   3.610   1.983 -0.4168  0.1522 -0.0386
  982SOL     OW 3925   0.239   3.889   1.899  0.0722 -0.1904 -0.1363
  982SOL    HW2 3926   0.309   3.927   1.951  1.1247 -0.7031 -1.1647
  982SOL    HW3 3927   0.240   3.795   1.921 -0.4551 -0.1621  0.0314
  982SOL    MW4 3928   0.248   3.881   1.909  0.1415 -0.2543 -0.2499
  983SOL     OW 3929   4.483   3.994   1.983 -0.5961  0.4294 -0.4488
  983SOL    HW2 3930   4.493   4.083   1.948 -0.7849  0.2475 -0.9743
  983SOL    HW3 3931   4.562   3.948   1.956 -0.9443  0.1606 -1.0351
  983SOL    MW4 3932   4.495   4.000   1.974 -0.6669  0.3699 -0.5955
  984SOL     OW 3933   4.488   4.260   1.880  0.1881  0.4908 -0.5479
  984SOL    HW2 3934   4.408   4.301   1.914 -0.1715 -0.3534 -0.3665
  984SOL    HW3 3935   4.559   4.311   1.919 -0.2616  1.5136 -1.0501
  984SOL    MW4 3936   4.487   4.272   1.890  0.0813  0.5143 -0.5903
  985SOL     OW 3937   0.220   4.390   1.993  0.1371 -0.2467 -0.1338
  985SOL    HW2 3938   0.195   4.377   2.084  0.1690 -0.5091 -0.1618
  985SOL    HW3 3939   0.225   4.485   1.982 -0.8863 -0.1905 -0.1441
  985SOL    MW4 3940   0.218   4.400   2.003  0.0063 -0.2739 -0.1389
  986SOL     OW 3941   0.656   4.621   1.927  0.4144  0.2722  0.6191
  986SOL    HW2 3942   0.675   4.539   1.972  1.2580  0.7564  1.1558
  986SOL    HW3 3943   0.651   4.597   1.834 -1.0209 -0.6754  0.9228
  986SOL    MW4 3944   0.658   4.607   1.921  0.3363  0.2111  0.7300
  987SOL     OW 3945   0.478   0.131   2.049  0.2378 -0.0565 -0.6204
  987SOL    HW2 3946   0.471   0.212   1.998 -1.2196 -0.2494 -0.7333
  987SOL    HW3 3947   0.528   0.072   1.994 -0.1812  0.1882 -1.2724
  987SOL    MW4 3948   0.484   0.134   2.035 -0.0098 -0.0497 -0.7213
  988SOL     OW 3949   0.483   0.349   1.877  0.5117 -0.2354 -0.8751
  988SOL    HW2 3950   0.555   0.412   1.886  0.6754 -0.3324 -1.4896
  988SOL    HW3 3951   0.452   0.361   1.787 -0.4997  0.0793 -0.4903
  988SOL    MW4 3952   0.488   0.359   1.866  0.3998 -0.2067 -0.9054
  989SOL     OW 3953   0.703   0.528   1.976 -0.2242 -0.2700 -0.0772
  989SOL    HW2 3954   0.679   0.523   2.068 -0.2602  1.1434 -0.0052
  989SOL    HW3 3955   0.779   0.470   1.968  1.5654  1.7776  1.4523
  989SOL    MW4 3956   0.710   0.520   1.987  0.0072  0.1866  0.1341
  990SOL     OW 3957   0.725   0.789   1.890 -0.1339 -0.0244  0.3032
  990SOL    HW2 3958   0.778   0.851   1.940  0.3712 -0.0570 -0.1885
  990SOL    HW3 3959   0.733   0.706   1.938 -0.8443  0.2937  0.9840
  990SOL    MW4 3960   0.733   0.786   1.903 -0.1610  0.0133  0.3281
  991SOL     OW 3961   0.460   0.868   1.997  0.2541  0.0821  0.1088
  991SOL    HW2 3962   0.456   0.950   1.948  0.3133 -0.1945 -0.3683
  991SOL    HW3 3963   0.534   0.821   1.959  0.2469 -0.1734  0.4093
  991SOL    MW4 3964   0.469   0.872   1.985  0.2609  0.0119  0.0855
  992SOL     OW 3965   0.437   1.146   1.916  0.1794  0.2513  0.2305
  992SOL    HW2 3966   0.366   1.206   1.939  0.7289  0.9880  0.0328
  992SOL    HW3 3967   0.438   1.147   1.820  0.2038 -0.0578  0.2289
  992SOL    MW4 3968   0.428   1.154   1.906  0.2552  0.3077  0.2042
  993SOL     OW 3969   0.697   1.141   2.036 -0.3211 -0.0496  0.5179
  993SOL    HW2 3970   0.683   1.163   2.128 -1.1665 -0.6166  0.5289
  993SOL    HW3 3971   0.611   1.152   1.995  0.1072  0.4535 -0.2577
  993SOL    MW4 3972   0.684   1.145   2.042 -0.3761 -0.0580  0.4170
  994SOL     OW 3973   0.708   1.514   1.846  0.0159 -0.4196  0.1215
  994SOL    HW2 3974   0.771   1.446   1.868 -1.3649 -1.4630  0.9503
  994SOL    HW3 3975   0.686   1.499   1.755  0.7470 -0.2319 -0.0854
  994SOL    MW4 3976   0.714   1.503   1.837 -0.0698 -0.5325  0.2036
  995SOL     OW 3977   0.487   1.668   1.952 -0.4705 -0.4491  0.4473
  995SOL    HW2 3978   0.493   1.651   2.046  0.6188 -0.1754  0.4341
  995SOL    HW3 3979   0.558   1.617   1.913  0.3467  1.0220 -0.0095
  995SOL    MW4 3980   0.497   1.659   1.959 -0.2190 -0.2189  0.3853
  996SOL     OW 3981   0.462   1.927   1.859 -0.3589 -0.4784  0.3457
  996SOL    HW2 3982   0.462   1.839   1.898  1.0619 -0.5946  0.1213
  996SOL    HW3 3983   0.399   1.976   1.911 -1.9354 -1.9117 -0.1658
  996SOL    MW4 3984   0.454   1.922   1.871 -0.3795 -0.6829  0.2486
  997SOL     OW 3985   0.695   2.077   1.940 -0.4215 -0.4467 -0.1498
  997SOL    HW2 3986   0.682   2.077   2.034 -1.5241 -0.3363 -0.2955
  997SOL    HW3 3987   0.620   2.028   1.905 -1.4511  1.7688 -1.1517
  997SOL    MW4 3988   0.684   2.070   1.948 -0.7028 -0.1398 -0.3012
  998SOL     OW 3989   0.672   2.347   1.837  0.2708  0.4754  0.2214
  998SOL    HW2 3990   0.695   2.260   1.869  3.7592  1.3408  0.3383
  998SOL    HW3 3991   0.680   2.340   1.742  2.0599  1.0182  0.3145
  998SOL    MW4 3992   0.676   2.335   1.829  0.9671  0.6612  0.2491
  999SOL     OW 3993   0.434   2.463   1.942  0.2294  0.2672  0.3823
  999SOL    HW2 3994   0.432   2.438   2.034  0.3606  1.6289  0.7556
  999SOL    HW3 3995   0.519   2.431   1.911 -0.5175 -1.6900  0.2897
  999SOL    MW4 3996   0.445   2.455   1.950  0.1482  0.1887  0.4193
 1000SOL     OW 3997   0.430   2.713   1.855  0.1245 -0.2368 -0.3856
 1000SOL    HW2 3998   0.414   2.628   1.895  0.3755 -0.0568  0.1036
 1000SOL    HW3 3999   0.364   2.771   1.893  1.1854  0.2428  0.7887
 1000SOL    MW4 4000   0.419   2.710   1.865  0.2976 -0.1498 -0.1661
 1001SOL     OW 4001   0.674   2.788   1.951 -0.0349  0.2471 -0.3884
 1001SOL    HW2 4002   0.673   2.781   2.046  0.5499  0.9329 -0.3300
 1001SOL    HW3 4003   0.589   2.752   1.923  0.1371 -0.7234  0.3331
 1001SOL    MW4 4004   0.662   2.782   1.960  0.0649  0.2096 -0.2855
 1002SOL     OW 4005   0.618   3.055   1.874  1.0471  0.5922 -0.0381
 1002SOL    HW2 4006   0.633   2.969   1.912 -1.8326 -0.1867 -0.5649
 1002SOL    HW3 4007   0.624   3.041   1.779  0.4392  0.9382 -0.1319
 1002SOL    MW4 4008   0.621   3.042   1.866  0.5869  0.5351 -0.1200
 1003SOL     OW 4009   0.403   3.214   2.004 -0.1010  0.2548 -0.5085
 1003SOL    HW2 4010   0.397   3.299   1.959 -1.3011  0.0227 -0.8060
 1003SOL    HW3 4011   0.479   3.172   1.964  0.0649  0.8880 -0.8793
 1003SOL    MW4 4012   0.413   3.220   1.993 -0.2375  0.3077 -0.5967
 1004SOL     OW 4013   0.419   3.460   1.889  0.2119 -0.3460 -0.3316
 1004SOL    HW2 4014   0.494   3.501   1.932 -1.7167  3.0764 -0.0831
 1004SOL    HW3 4015   0.434   3.473   1.795 -0.8479  1.8581 -0.2212
 1004SOL    MW4 4016   0.431   3.467   1.882 -0.1824  0.3964 -0.2842
 1005SOL     OW 4017   0.664   3.585   1.985 -0.4749  0.2842 -0.0781
 1005SOL    HW2 4018   0.750   3.550   1.963  0.5089  1.5273  1.6688
 1005SOL    HW3 4019   0.672   3.679   1.974 -1.6645  0.4078 -0.0288
 1005SOL    MW4 4020   0.676   3.592   1.981 -0.5021  0.4645  0.1589
 1006SOL     OW 4021   0.691   3.862   1.951 -0.3514 -0.5987 -0.2591
 1006SOL    HW2 4022   0.769   3.917   1.962 -0.7946 -0.1857  0.9265
 1006SOL    HW3 4023   0.680   3.855   1.856  1.4870 -1.1852 -0.4425
 1006SOL    MW4 4024   0.699   3.868   1.940 -0.1674 -0.6216 -0.1269
 1007SOL     OW 4025   0.446   3.982   2.061 -0.0463 -0.1243  0.0782
 1007SOL    HW2 4026   0.439   4.062   2.009  0.8119  0.0766  0.2536
 1007SOL    HW3 4027   0.520   3.936   2.023 -0.4331 -0.7567  0.0892
 1007SOL    MW4 4028   0.455   3.987   2.049  0.0159 -0.1813  0.1028
 1008SOL     OW 4029   0.450   4.242   1.946 -0.2636 -0.7445 -0.5766
 1008SOL    HW2 4030   0.364   4.281   1.964  0.3197  0.2019  0.1555
 1008SOL    HW3 4031   0.460   4.248   1.851 -1.5268 -1.9604 -0.8082
 1008SOL    MW4 4032   0.440   4.248   1.936 -0.3533 -0.7800 -0.5106
 1009SOL     OW 4033   0.693   4.355   2.014 -0.0988  0.4200 -0.3196
 1009SOL    HW2 4034   0.758   4.294   1.980  0.5628 -0.0246  1.7078
 1009SOL    HW3 4035   0.609   4.312   1.998  0.2466 -0.1085 -0.7237
 1009SOL    MW4 4036   0.691   4.342   2.007  0.0341  0.2916 -0.1055
 1010SOL     OW 4037   1.078   4.657   1.854  0.1263 -0.2516  0.6637
 1010SOL    HW2 4038   1.159   4.700   1.881  0.8423 -0.7653 -0.6421
 1010SOL    HW3 4039   1.084   4.570   1.894  0.9571 -0.8386 -0.7123
 1010SOL    MW4 4040   1.090   4.651   1.863  0.3303 -0.3968  0.3098
 1011SOL     OW 4041   0.873   0.102   2.001 -0.1184 -0.0805 -0.1372
 1011SOL    HW2 4042   0.944   0.069   1.945  0.9041  0.0749  1.0301
 1011SOL    HW3 4043   0.798   0.046   1.981  0.8805 -1.4803 -0.0169
 1011SOL    MW4 4044   0.873   0.090   1.991  0.1483 -0.2447  0.0326
 1012SOL     OW 4045   0.889   0.356   1.913 -0.3028  0.2493 -0.3516
 1012SOL    HW2 4046   0.959   0.409   1.950 -1.3391  0.3299  1.5815
 1012SOL    HW3 4047   0.884   0.279   1.969  0.2033 -1.2072 -2.2540
 1012SOL    MW4 4048   0.897   0.353   1.925 -0.3728  0.0678 -0.3476
 1013SOL     OW 4049   1.089   0.514   2.007  0.0778 -0.0716  0.1745
 1013SOL    HW2 4050   1.169   0.475   1.973 -0.5045 -1.5112  0.4135
 1013SOL    HW3 4051   1.095   0.607   1.984  0.3143 -0.7485 -2.6859
 1013SOL    MW4 4052   1.100   0.521   1.999  0.0322 -0.3508 -0.1713
 1014SOL     OW 4053   1.146   0.758   1.930  0.0044  0.4837  0.6195
 1014SOL    HW2 4054   1.220   0.820   1.931  1.5951 -1.3592  0.3872
 1014SOL    HW3 4055   1.069   0.812   1.947  1.4562  2.4020  1.2735
 1014SOL    MW4 4056   1.146   0.773   1.932  0.4058  0.4937  0.6752
 1015SOL     OW 4057   0.907   0.934   2.030 -0.1851 -0.6968 -0.2913
 1015SOL    HW2 4058   0.910   0.902   2.120  1.1923  1.4143  0.4403
 1015SOL    HW3 4059   0.860   1.017   2.035  1.3431  0.2467 -1.2464
 1015SOL    MW4 4060   0.901   0.940   2.042  0.1983 -0.2938 -0.3208
 1016SOL     OW 4061   0.862   1.287   1.884  0.4887 -0.4094  0.2403
 1016SOL    HW2 4062   0.811   1.235   1.947  1.7052 -0.0358  1.5783
 1016SOL    HW3 4063   0.860   1.236   1.804 -1.3250 -0.7783  0.4968
 1016SOL    MW4 4064   0.855   1.273   1.882  0.4099 -0.4088  0.4507
 1017SOL     OW 4065   1.105   1.326   1.985 -0.1041  0.4346 -0.3671
 1017SOL    HW2 4066   1.119   1.413   1.946 -1.4398  0.6279 -0.4434
 1017SOL    HW3 4067   1.028   1.291   1.939  0.6559 -0.9564 -0.6156
 1017SOL    MW4 4068   1.096   1.333   1.974 -0.1800  0.2766 -0.4100
 1018SOL     OW 4069   1.153   1.580   1.889 -0.1571  0.1841 -0.3229
 1018SOL    HW2 4070   1.075   1.616   1.929 -0.4943 -0.4290 -0.4269
 1018SOL    HW3 4071   1.140   1.592   1.795  0.1864  0.7058 -0.3116
 1018SOL    MW4 4072   1.141   1.586   1.882 -0.1563  0.1720 -0.3351
 1019SOL     OW 4073   0.904   1.677   1.973  0.0254 -0.0303  0.1571
 1019SOL    HW2 4074   0.906   1.767   1.940  0.4657 -0.3695 -0.7661
 1019SOL    HW3 4075   0.849   1.630   1.911  2.0061 -0.9834 -0.9430
 1019SOL    MW4 4076   0.897   1.682   1.961  0.3448 -0.2008 -0.1098
 1020SOL     OW 4077   0.918   1.929   1.868  0.1850  0.5611 -0.4436
 1020SOL    HW2 4078   0.833   1.971   1.882 -0.2941 -0.0515 -1.4537
 1020SOL    HW3 4079   0.931   1.931   1.773  1.4350  0.9051 -0.2743
 1020SOL    MW4 4080   0.908   1.935   1.858  0.2867  0.5257 -0.5546
 1021SOL     OW 4081   1.132   2.075   1.976 -0.2177 -0.0741  0.0572
 1021SOL    HW2 4082   1.132   2.156   1.924 -0.8856 -0.3307 -0.3421
 1021SOL    HW3 4083   1.059   2.024   1.941 -0.5293 -0.3472  1.0951
 1021SOL    MW4 4084   1.122   2.079   1.964 -0.3469 -0.1440  0.1415
 1022SOL     OW 4085   1.140   2.346   1.842  0.1167  0.0763  0.0199
 1022SOL    HW2 4086   1.224   2.386   1.866  0.2350  0.2585 -0.6763
 1022SOL    HW3 4087   1.146   2.334   1.747 -1.0910  1.1249 -0.1988
 1022SOL    MW4 4088   1.152   2.350   1.833 -0.0270  0.2387 -0.1008
 1023SOL     OW 4089   0.913   2.420   2.011 -0.3734  0.1284 -0.2054
 1023SOL    HW2 4090   0.982   2.380   1.959 -0.2891 -0.0871  0.0662
 1023SOL    HW3 4091   0.832   2.397   1.967 -0.2737  0.3415 -0.4993
 1023SOL    MW4 4092   0.911   2.412   1.999 -0.3491  0.1281 -0.2084
 1024SOL     OW 4093   0.930   2.673   1.909 -0.1195 -0.1328  0.6505
 1024SOL    HW2 4094   0.929   2.582   1.937 -0.2297  0.4873  2.7097
 1024SOL    HW3 4095   0.843   2.706   1.930 -0.0503  0.4848  0.0074
 1024SOL    MW4 4096   0.919   2.665   1.915 -0.1249  0.0305  0.8374
 1025SOL     OW 4097   1.132   2.840   1.970 -0.6449  0.1717  0.1037
 1025SOL    HW2 4098   1.137   2.852   2.065 -0.2704  0.0538  0.1018
 1025SOL    HW3 4099   1.060   2.778   1.957 -0.8360  0.3557  0.2977
 1025SOL    MW4 4100   1.123   2.833   1.981 -0.6207  0.1804  0.1290
 1026SOL     OW 4101   1.111   3.094   1.886 -0.7576 -0.5024 -0.2578
 1026SOL    HW2 4102   1.019   3.106   1.910 -0.6082 -2.5907  1.5051
 1026SOL    HW3 4103   1.127   3.000   1.899  1.4793 -0.2575 -1.0787
 1026SOL    MW4 4104   1.101   3.083   1.891 -0.4428 -0.7456 -0.1335
 1027SOL     OW 4105   0.847   3.185   1.951  0.1435  0.5247  0.2363
 1027SOL    HW2 4106   0.826   3.196   2.044 -1.0982 -1.2318  0.2090
 1027SOL    HW3 4107   0.765   3.153   1.912 -0.0285  3.4115 -1.9136
 1027SOL    MW4 4108   0.833   3.182   1.958 -0.0430  0.6738 -0.0510
 1028SOL     OW 4109   0.897   3.445   1.888 -0.1463  0.1137 -0.2972
 1028SOL    HW2 4110   0.883   3.353   1.911 -1.3857  0.8038  1.7767
 1028SOL    HW3 4111   0.875   3.449   1.795  0.8121 -1.8595 -0.6472
 1028SOL    MW4 4112   0.892   3.433   1.879 -0.1833 -0.0556 -0.0698
 1029SOL     OW 4113   1.102   3.598   2.009  0.0559 -0.2987 -0.3952
 1029SOL    HW2 4114   1.105   3.596   2.104 -0.8209  0.5201 -0.3471
 1029SOL    HW3 4115   1.023   3.550   1.986 -0.5600  0.8366 -0.6523
 1029SOL    MW4 4116   1.092   3.591   2.018 -0.1411 -0.0409 -0.4227
 1030SOL     OW 4117   1.116   3.848   1.921 -0.1378  0.6903  0.0417
 1030SOL    HW2 4118   1.098   3.760   1.956  0.8626  0.5090  0.1095
 1030SOL    HW3 4119   1.081   3.846   1.832  1.3520 -0.3162 -0.5383
 1030SOL    MW4 4120   1.109   3.836   1.914  0.1907  0.5336 -0.0259
 1031SOL     OW 4121   0.918   4.003   2.007 -0.5302 -0.2688 -0.0670
 1031SOL    HW2 4122   0.926   4.016   2.102  1.1513 -0.2331 -0.1989
 1031SOL    HW3 4123   0.997   3.956   1.983 -0.4771  0.5993 -1.6221
 1031SOL    MW4 4124   0.929   3.999   2.016 -0.3014 -0.1496 -0.2896
 1032SOL     OW 4125   0.907   4.248   1.874  0.2472 -0.0241  0.2666
 1032SOL    HW2 4126   0.985   4.297   1.897 -0.3651  0.0343  2.3233
 1032SOL    HW3 4127   0.916   4.165   1.921  0.7646 -1.4824 -2.3369
 1032SOL    MW4 4128   0.918   4.243   1.883  0.2347 -0.2088  0.1944
 1033SOL     OW 4129   1.103   4.407   1.969 -0.9025 -0.4085 -0.0166
 1033SOL    HW2 4130   1.087   4.397   2.063  0.0674  0.2868  0.2382
 1033SOL    HW3 4131   1.184   4.358   1.954 -1.8469 -1.7568 -0.7805
 1033SOL    MW4 4132   1.112   4.399   1.979 -0.8991 -0.4946 -0.0838
 1034SOL     OW 4133   1.554   4.580   1.840 -0.0620  0.1971 -0.1678
 1034SOL    HW2 4134   1.630   4.622   1.881  0.2335  0.2574 -0.7650
 1034SOL    HW3 4135   1.566   4.487   1.858  0.2884  0.1807 -0.4682
 1034SOL    MW4 4136   1.566   4.573   1.848  0.0232  0.2029 -0.2862
 1035SOL     OW 4137   1.320   0.077   1.962  0.5170  0.2651 -0.2842
 1035SOL    HW2 4138   1.325   0.063   2.057  1.6701  0.5973 -0.2882
 1035SOL    HW3 4139   1.380   0.012   1.925 -1.0851 -0.8757 -0.8857
 1035SOL    MW4 4140   1.329   0.067   1.970  0.4577  0.1584 -0.3641
 1036SOL     OW 4141   1.322   0.366   1.915 -0.2524  0.3159 -0.0000
 1036SOL    HW2 4142   1.331   0.273   1.935  0.3388  0.8428  2.2924
 1036SOL    HW3 4143   1.315   0.369   1.819 -2.4571 -2.2230  0.0251
 1036SOL    MW4 4144   1.323   0.355   1.905 -0.4653  0.0504  0.3057
 1037SOL     OW 4145   1.561   0.502   1.974  0.4140 -0.6198  0.2344
 1037SOL    HW2 4146   1.620   0.442   1.928  1.0333  1.0613 -1.1945
 1037SOL    HW3 4147   1.475   0.460   1.968  0.8162 -1.2999 -0.8389
 1037SOL    MW4 4148   1.557   0.488   1.967  0.5488 -0.4877 -0.0957
 1038SOL     OW 4149   1.559   0.763   1.881 -0.4689 -0.1213 -0.1627
 1038SOL    HW2 4150   1.640   0.806   1.908 -0.7736  0.0060  0.5668
 1038SOL    HW3 4151   1.555   0.684   1.936 -1.6243  0.6794  0.9044
 1038SOL    MW4 4152   1.569   0.758   1.892 -0.6615  0.0012  0.0744
 1039SOL     OW 4153   1.360   0.936   1.966  0.0045  0.2109  0.7412
 1039SOL    HW2 4154   1.339   0.909   2.055 -0.2310 -3.1392 -0.2712
 1039SOL    HW3 4155   1.436   0.883   1.942 -1.5602 -0.9281 -1.9767
 1039SOL    MW4 4156   1.368   0.925   1.974 -0.2330 -0.3814  0.2491
 1040SOL     OW 4157   1.368   1.206   1.915  0.1205  0.0547 -0.0860
 1040SOL    HW2 4158   1.358   1.113   1.937 -1.7003  0.4904  1.0108
 1040SOL    HW3 4159   1.296   1.250   1.960  0.4983  1.9183 -1.2184
 1040SOL    MW4 4160   1.358   1.200   1.924 -0.0699  0.3581 -0.0907
 1041SOL     OW 4161   1.621   1.290   2.006 -0.0629 -0.4360 -1.0647
 1041SOL    HW2 4162   1.630   1.375   1.964 -1.5603  0.4769  0.4293
 1041SOL    HW3 4163   1.535   1.259   1.979 -0.8937  0.0074  1.0210
 1041SOL    MW4 4164   1.611   1.297   1.997 -0.3701 -0.2571 -0.5924
 1042SOL     OW 4165   1.623   1.549   1.898 -0.7963  0.0185  0.4240
 1042SOL    HW2 4166   1.699   1.587   1.943 -0.4013  1.0991 -1.1286
 1042SOL    HW3 4167   1.552   1.611   1.916 -0.6888  0.3407 -0.2421
 1042SOL    MW4 4168   1.624   1.563   1.906 -0.7300  0.2036  0.1312
 1043SOL     OW 4169   1.392   1.716   1.976  0.1674  0.6110  0.0129
 1043SOL    HW2 4170   1.372   1.702   2.068  1.0711 -1.7285 -0.1069
 1043SOL    HW3 4171   1.328   1.662   1.929  1.0232  0.1465 -0.6446
 1043SOL    MW4 4172   1.381   1.707   1.982  0.3996  0.2410 -0.0896
 1044SOL     OW 4173   1.363   1.963   1.845 -0.1598  0.2901  0.3813
 1044SOL    HW2 4174   1.372   1.878   1.888  1.4285  0.0269 -0.4407
 1044SOL    HW3 4175   1.292   2.007   1.892 -0.6028 -1.2637  1.1754
 1044SOL    MW4 4176   1.355   1.958   1.857 -0.0087  0.0503  0.3776
 1045SOL     OW 4177   1.591   2.027   1.990  0.0258 -0.1056 -0.3646
 1045SOL    HW2 4178   1.616   2.115   1.964  0.0792  0.4759  1.6434
 1045SOL    HW3 4179   1.508   2.012   1.944  1.0947  0.1213 -2.4521
 1045SOL    MW4 4180   1.583   2.036   1.980  0.1739  0.0011 -0.3751
 1046SOL     OW 4181   1.613   2.298   1.894 -0.4798  0.4595 -0.0131
 1046SOL    HW2 4182   1.676   2.360   1.929 -1.4503  0.0071  2.7102
 1046SOL    HW3 4183   1.617   2.310   1.799  3.5503  0.5137  0.0804
 1046SOL    MW4 4184   1.622   2.308   1.886 -0.0761  0.4070  0.3586
 1047SOL     OW 4185   1.378   2.442   1.979 -0.3689  0.1919  0.4066
 1047SOL    HW2 4186   1.404   2.534   1.977 -0.5434  0.2228 -2.0958
 1047SOL    HW3 4187   1.457   2.394   1.955 -0.4685 -0.2650  0.9835
 1047SOL    MW4 4188   1.392   2.448   1.976 -0.4051  0.1357  0.1526
 1048SOL     OW 4189   1.388   2.703   1.928  0.0275 -0.1124 -0.0416
 1048SOL    HW2 4190   1.307   2.750   1.948  0.1053 -0.2485  0.5996
 1048SOL    HW3 4191   1.384   2.688   1.833  0.2479  1.6048 -0.3368
 1048SOL    MW4 4192   1.377   2.707   1.918  0.0668  0.0962  0.0040
 1049SOL     OW 4193   1.614   2.813   2.040 -0.4672  0.0124 -0.3263
 1049SOL    HW2 4194   1.686   2.768   1.996 -0.3317  1.7726 -1.9729
 1049SOL    HW3 4195   1.535   2.771   2.005 -0.2901 -1.4211  0.9325
 1049SOL    MW4 4196   1.613   2.801   2.030 -0.4260  0.0555 -0.3775
 1050SOL     OW 4197   1.531   3.068   1.951 -0.1735 -0.1890 -0.0840
 1050SOL    HW2 4198   1.559   2.984   1.988 -1.0001 -0.2706  0.3755
 1050SOL    HW3 4199   1.549   3.060   1.858  1.8760 -0.0066  0.2653
 1050SOL    MW4 4200   1.537   3.056   1.944 -0.0121 -0.1757  0.0227
 1051SOL     OW 4201   1.316   3.206   2.043 -0.0494 -0.0092 -0.1721
 1051SOL    HW2 4202   1.392   3.162   2.006  0.5019 -0.2237  1.1598
 1051SOL    HW3 4203   1.242   3.174   1.992  0.8435  0.9686 -2.1418
 1051SOL    MW4 4204   1.316   3.196   2.032  0.1411  0.0915 -0.2563
 1052SOL     OW 4205   1.328   3.453   1.905  0.7999  0.4821  0.0302
 1052SOL    HW2 4206   1.314   3.367   1.945 -0.6981 -0.1026 -1.6750
 1052SOL    HW3 4207   1.267   3.511   1.950  1.0434  0.4195  0.4425
 1052SOL    MW4 4208   1.318   3.449   1.916  0.6344  0.3967 -0.1403
 1053SOL     OW 4209   1.571   3.611   1.970 -0.1940  0.2329  0.2434
 1053SOL    HW2 4210   1.581   3.610   2.065 -2.9921  0.7085  0.5837
 1053SOL    HW3 4211   1.504   3.546   1.952 -0.2002  0.6597 -1.3443
 1053SOL    MW4 4212   1.564   3.602   1.980 -0.5640  0.3520  0.0788
 1054SOL     OW 4213   1.554   3.873   1.872 -0.1485 -0.0357 -0.1249
 1054SOL    HW2 4214   1.626   3.924   1.910  0.4166 -1.0101  0.1083
 1054SOL    HW3 4215   1.566   3.785   1.906 -0.7166 -0.4964 -1.1065
 1054SOL    MW4 4216   1.565   3.868   1.882 -0.1489 -0.2250 -0.2236
 1055SOL     OW 4217   1.326   4.006   1.993 -0.2628  0.7085 -0.7022
 1055SOL    HW2 4218   1.395   3.965   1.941  0.8844 -0.8867  2.0229
 1055SOL    HW3 4219   1.251   3.947   1.984 -0.4491  1.0336 -1.4113
 1055SOL    MW4 4220   1.325   3.993   1.985 -0.1360  0.5409 -0.4362
 1056SOL     OW 4221   1.344   4.268   1.892  0.0405  0.2137 -0.0080
 1056SOL    HW2 4222   1.322   4.182   1.929 -0.0833  0.1892 -0.1379
 1056SOL    HW3 4223   1.332   4.257   1.798  1.6427 -0.0957 -0.1862
 1056SOL    MW4 4224   1.339   4.255   1.885  0.2356  0.1696 -0.0487
 1057SOL     OW 4225   1.581   4.324   2.016 -0.2541  0.1091  0.1527
 1057SOL    HW2 4226   1.581   4.343   2.110  2.0898 -0.2335  0.2556
 1057SOL    HW3 4227   1.491   4.300   1.997 -0.8552  0.5464  2.2427
 1057SOL    MW4 4228   1.570   4.323   2.026 -0.0242  0.1216  0.4421
 1058SOL     OW 4229   1.977   4.617   1.854  0.1093  0.8600  0.0575
 1058SOL    HW2 4230   2.043   4.685   1.870 -1.0499  2.0585 -0.1773
 1058SOL    HW3 4231   2.011   4.539   1.898  2.0865  1.2282 -0.7581
 1058SOL    MW4 4232   1.991   4.616   1.862  0.2172  1.0667 -0.0811
 1059SOL     OW 4233   1.762   0.078   1.970 -0.1249 -0.2506 -0.7058
 1059SOL    HW2 4234   1.750   0.074   2.065  0.9184  1.2393 -0.4842
 1059SOL    HW3 4235   1.842   0.029   1.954  0.0918  0.1021 -0.7186
 1059SOL    MW4 4236   1.771   0.071   1.980  0.0413 -0.0075 -0.6782
 1060SOL     OW 4237   1.792   0.339   1.860 -0.4247 -0.3433  0.2037
 1060SOL    HW2 4238   1.771   0.247   1.880 -1.0390 -0.6271 -1.6512
 1060SOL    HW3 4239   1.809   0.340   1.766  0.6894  1.2607  0.4036
 1060SOL    MW4 4240   1.791   0.327   1.850 -0.3587 -0.1691 -0.0146
 1061SOL     OW 4241   1.993   0.498   2.011 -0.4558 -0.0635  0.5434
 1061SOL    HW2 4242   1.979   0.581   1.966  0.8510 -0.9080 -1.5029
 1061SOL    HW3 4243   1.929   0.438   1.972 -0.2143 -0.4563  0.7455
 1061SOL    MW4 4244   1.983   0.501   2.000 -0.2515 -0.2268  0.3001
 1062SOL     OW 4245   2.000   0.751   1.884 -0.0460  0.0839  0.0894
 1062SOL    HW2 4246   2.080   0.787   1.924 -0.0961  1.0858 -0.6755
 1062SOL    HW3 4247   2.011   0.767   1.791 -1.5702  1.1135  0.0676
 1062SOL    MW4 4248   2.012   0.758   1.877 -0.2537  0.3519 -0.0144
 1063SOL     OW 4249   1.798   0.904   1.983  0.0896 -0.4040 -0.2062
 1063SOL    HW2 4250   1.801   0.996   1.955 -1.4174 -0.7133 -1.4511
 1063SOL    HW3 4251   1.874   0.864   1.942  0.4339  0.1563 -0.1234
 1063SOL    MW4 4252   1.809   0.911   1.974 -0.0638 -0.3709 -0.3595
 1064SOL     OW 4253   1.822   1.161   1.901  0.3789  0.5571  0.0084
 1064SOL    HW2 4254   1.742   1.206   1.929 -0.4625 -1.2488  0.5753
 1064SOL    HW3 4255   1.820   1.166   1.806 -1.1323 -0.6249 -0.0521
 1064SOL    MW4 4256   1.811   1.168   1.892  0.0685  0.1629  0.0752
 1065SOL     OW 4257   2.068   1.255   1.973 -0.0123  0.6232 -0.2294
 1065SOL    HW2 4258   2.136   1.195   1.940 -0.5009  0.6443 -1.2826
 1065SOL    HW3 4259   1.986   1.220   1.938 -0.7273 -0.2371  2.2246
 1065SOL    MW4 4260   2.066   1.242   1.964 -0.1711  0.5125 -0.0446
 1066SOL     OW 4261   2.050   1.546   1.880  0.2779 -0.5513  0.4729
 1066SOL    HW2 4262   2.055   1.453   1.901 -0.0537 -0.8232 -0.5982
 1066SOL    HW3 4263   2.037   1.548   1.785  1.6296  0.6170  0.2964
 1066SOL    MW4 4264   2.049   1.534   1.870  0.4125 -0.4330  0.3083
 1067SOL     OW 4265   1.842   1.674   2.003  0.2324 -0.3687  0.2252
 1067SOL    HW2 4266   1.855   1.761   1.968  0.6538 -0.6709 -0.3689
 1067SOL    HW3 4267   1.909   1.620   1.961  1.5658 -0.4802  2.4132
 1067SOL    MW4 4268   1.852   1.678   1.993  0.4639 -0.4233  0.4355
 1068SOL     OW 4269   1.824   1.923   1.880 -0.2438  0.5378  0.2255
 1068SOL    HW2 4270   1.741   1.943   1.925 -0.2924  0.9243 -0.0326
 1068SOL    HW3 4271   1.805   1.940   1.788  0.3987  1.5424  0.2739
 1068SOL    MW4 4272   1.810   1.928   1.874 -0.1655  0.7213  0.1978
 1069SOL     OW 4273   2.058   2.043   2.002  0.2059 -0.3749  0.2081
 1069SOL    HW2 4274   2.138   2.008   1.963  0.2224 -2.2031  1.7904
 1069SOL    HW3 4275   1.987   2.000   1.955  0.1192  1.4675 -1.3933
 1069SOL    MW4 4276   2.059   2.033   1.991  0.1967 -0.3730  0.2056
 1070SOL     OW 4277   2.021   2.316   1.894  0.0383  0.3387  0.0590
 1070SOL    HW2 4278   2.100   2.357   1.929 -1.8837  2.4162  2.1486
 1070SOL    HW3 4279   2.025   2.226   1.926  0.9300  0.7792  1.2321
 1070SOL    MW4 4280   2.032   2.310   1.903 -0.0976  0.6709  0.4894
 1071SOL     OW 4281   1.819   2.465   2.003 -0.3479 -0.3801 -0.1718
 1071SOL    HW2 4282   1.817   2.463   2.098 -0.3711  0.1683 -0.1587
 1071SOL    HW3 4283   1.889   2.405   1.978  0.9760  0.9719  0.2513
 1071SOL    MW4 4284   1.828   2.457   2.012 -0.1763 -0.1294 -0.1143
 1072SOL     OW 4285   1.873   2.722   1.922  0.3500 -0.4899 -0.0473
 1072SOL    HW2 4286   1.868   2.635   1.963  0.2137 -0.8738 -0.8760
 1072SOL    HW3 4287   1.870   2.705   1.828 -1.1432  0.5032 -0.1977
 1072SOL    MW4 4288   1.872   2.708   1.915  0.1350 -0.4095 -0.1765
 1073SOL     OW 4289   2.050   2.890   2.027 -0.1215 -0.8031 -0.0125
 1073SOL    HW2 4290   2.050   2.883   2.122  0.7848  0.1239  0.0641
 1073SOL    HW3 4291   1.976   2.836   1.999 -0.4208 -1.0423  1.2124
 1073SOL    MW4 4292   2.040   2.882   2.035 -0.0414 -0.7123  0.1592
 1074SOL     OW 4293   2.027   3.158   1.955  0.6387  0.4373  0.1807
 1074SOL    HW2 4294   1.937   3.182   1.978 -0.0932 -1.3738 -0.6747
 1074SOL    HW3 4295   2.035   3.067   1.983  1.6915  0.1097 -1.1645
 1074SOL    MW4 4296   2.016   3.150   1.962  0.6811  0.1551 -0.1096
 1075SOL     OW 4297   1.757   3.220   2.002  0.1782 -0.3943  0.3230
 1075SOL    HW2 4298   1.759   3.211   2.097 -0.6417 -1.8250  0.2291
 1075SOL    HW3 4299   1.692   3.155   1.974  0.1053  0.3143 -1.1737
 1075SOL    MW4 4300   1.749   3.210   2.011  0.0604 -0.4896  0.1132
 1076SOL     OW 4301   1.810   3.489   1.903 -0.5567  0.2345  0.5879
 1076SOL    HW2 4302   1.797   3.399   1.934 -0.6406  0.3448  0.8849
 1076SOL    HW3 4303   1.729   3.533   1.927 -0.2290  0.5658  1.0893
 1076SOL    MW4 4304   1.797   3.483   1.910 -0.5246  0.2927  0.6932
 1077SOL     OW 4305   2.045   3.637   2.012 -0.0502 -0.0530  0.0486
 1077SOL    HW2 4306   2.056   3.725   1.975 -0.0593  0.2230  0.7032
 1077SOL    HW3 4307   1.963   3.605   1.972 -0.8598  0.8341  0.9773
 1077SOL    MW4 4308   2.035   3.644   2.002 -0.1583  0.1005  0.2575
 1078SOL     OW 4309   2.025   3.888   1.883  0.2449 -0.4294  0.5006
 1078SOL    HW2 4310   2.107   3.926   1.914  0.0886  0.9904 -0.7747
 1078SOL    HW3 4311   2.030   3.894   1.788 -1.7758  0.6449  0.4346
 1078SOL    MW4 4312   2.036   3.893   1.875 -0.0423 -0.1003  0.3236
 1079SOL     OW 4313   1.791   3.981   1.985 -0.2022 -0.1214 -0.2575
 1079SOL    HW2 4314   1.791   4.074   1.963 -0.6295 -0.0311  0.1166
 1079SOL    HW3 4315   1.872   3.947   1.947 -1.4431 -0.1858 -2.9616
 1079SOL    MW4 4316   1.801   3.989   1.977 -0.4223 -0.1180 -0.5649
 1080SOL     OW 4317   1.802   4.237   1.901 -0.3015  0.1748  0.1739
 1080SOL    HW2 4318   1.730   4.277   1.950 -1.9059 -0.2340 -1.7927
 1080SOL    HW3 4319   1.762   4.206   1.820  1.9356 -0.8240 -0.5941
 1080SOL    MW4 4320   1.787   4.238   1.897 -0.2180 -0.0109 -0.1869
 1081SOL     OW 4321   2.010   4.387   1.994  0.1413 -0.3781 -0.3365
 1081SOL    HW2 4322   2.092   4.361   1.953  0.4276  1.3029 -0.9009
 1081SOL    HW3 4323   1.942   4.341   1.945  0.6150 -0.0392 -1.3268
 1081SOL    MW4 4324   2.012   4.378   1.982  0.2416 -0.1116 -0.5416
 1082SOL     OW 4325   2.458   4.658   1.896  0.0712  0.2055 -0.0387
 1082SOL    HW2 4326   2.539   4.700   1.926 -0.4628  0.9684  0.3489
 1082SOL    HW3 4327   2.460   4.572   1.937  0.3451  0.4845  0.5485
 1082SOL    MW4 4328   2.469   4.652   1.906  0.0369  0.3430  0.0899
 1083SOL     OW 4329   2.204   0.092   1.943  0.4670  0.2769  0.0926
 1083SOL    HW2 4330   2.192   0.102   2.038  2.3495  0.5635  0.3313
 1083SOL    HW3 4331   2.296   0.066   1.934 -0.0285 -0.9743 -1.5860
 1083SOL    MW4 4332   2.215   0.090   1.955  0.6500  0.1496 -0.0974
 1084SOL     OW 4333   2.222   0.373   1.877  0.0386 -0.0139  0.3635
 1084SOL    HW2 4334   2.218   0.282   1.904 -1.2493  0.1665  0.8184
 1084SOL    HW3 4335   2.146   0.414   1.918 -0.1119  0.9851 -0.8830
 1084SOL    MW4 4336   2.212   0.367   1.886 -0.1512  0.1417  0.2591
 1085SOL     OW 4337   2.425   0.509   2.014 -0.2909  0.8554  0.5448
 1085SOL    HW2 4338   2.501   0.466   1.976  0.3338  1.3488  1.2176
 1085SOL    HW3 4339   2.351   0.477   1.963  0.4218  0.7621 -0.4353
 1085SOL    MW4 4340   2.425   0.499   2.002 -0.1145  0.9082  0.5042
 1086SOL     OW 4341   2.480   0.766   1.897 -0.2065  0.3312 -0.0961
 1086SOL    HW2 4342   2.463   0.675   1.923  1.4911  0.0856  0.2260
 1086SOL    HW3 4343   2.498   0.761   1.803 -0.8539  0.4409 -0.2265
 1086SOL    MW4 4344   2.480   0.753   1.888 -0.0679  0.3133 -0.0708
 1087SOL     OW 4345   2.230   0.842   1.978 -0.5000 -1.0671 -0.3122
 1087SOL    HW2 4346   2.240   0.872   2.068 -0.4158 -0.3730 -0.5527
 1087SOL    HW3 4347   2.317   0.812   1.953 -0.0497  0.6150 -0.8317
 1087SOL    MW4 4348   2.243   0.842   1.987 -0.4295 -0.7536 -0.4125
 1088SOL     OW 4349   2.272   1.101   1.873 -0.5431 -0.2572 -0.0908
 1088SOL    HW2 4350   2.347   1.145   1.912 -0.4450  0.8649 -1.5004
 1088SOL    HW3 4351   2.276   1.012   1.907  1.0799 -0.0346  0.3229
 1088SOL    MW4 4352   2.282   1.095   1.882 -0.3160 -0.0798 -0.2222
 1089SOL     OW 4353   2.471   1.243   1.996  0.4148  0.4257 -0.3812
 1089SOL    HW2 4354   2.473   1.256   2.090  0.5185  0.5758 -0.4035
 1089SOL    HW3 4355   2.485   1.331   1.959  0.3592  0.3710 -0.5349
 1089SOL    MW4 4356   2.473   1.257   2.003  0.4211  0.4383 -0.4044
 1090SOL     OW 4357   2.506   1.509   1.938 -0.0559 -0.3686  0.0481
 1090SOL    HW2 4358   2.429   1.558   1.968 -0.5535 -0.8258 -0.4536
 1090SOL    HW3 4359   2.501   1.513   1.843  1.8120  1.5188  0.0064
 1090SOL    MW4 4360   2.495   1.516   1.930  0.1249 -0.1799 -0.0236
 1091SOL     OW 4361   2.283   1.646   2.007 -0.2365 -0.5483 -0.1798
 1091SOL    HW2 4362   2.270   1.645   2.102 -1.4169 -0.2566 -0.3332
 1091SOL    HW3 4363   2.201   1.611   1.972  0.4976 -1.4161 -1.0635
 1091SOL    MW4 4364   2.271   1.641   2.015 -0.2954 -0.6243 -0.3167
 1092SOL     OW 4365   2.273   1.938   1.869  0.3578 -0.0711 -0.2192
 1092SOL    HW2 4366   2.349   1.985   1.903 -0.5711 -0.1125  2.0237
 1092SOL    HW3 4367   2.272   1.855   1.917 -0.2468 -0.7190 -1.3255
 1092SOL    MW4 4368   2.283   1.933   1.880  0.1555 -0.1620 -0.0692
 1093SOL     OW 4369   2.494   2.066   1.971 -0.1840  0.4039 -0.0517
 1093SOL    HW2 4370   2.567   2.025   1.924 -0.4628 -0.1916  0.0302
 1093SOL    HW3 4371   2.486   2.153   1.932 -0.5787 -0.1829 -1.3117
 1093SOL    MW4 4372   2.502   2.072   1.959 -0.2729  0.2479 -0.2071
 1094SOL     OW 4373   2.481   2.316   1.870  0.4038  0.2054 -0.0720
 1094SOL    HW2 4374   2.564   2.358   1.893  0.0509  0.5996  0.4799
 1094SOL    HW3 4375   2.414   2.370   1.911 -0.0836 -0.5640  0.1586
 1094SOL    MW4 4376   2.483   2.329   1.879  0.2930  0.1559  0.0312
 1095SOL     OW 4377   2.255   2.440   2.006  0.0578  0.0811  0.0515
 1095SOL    HW2 4378   2.257   2.443   2.102  0.0637  0.5851  0.0401
 1095SOL    HW3 4379   2.253   2.532   1.980 -0.2977 -0.0614 -0.4267
 1095SOL    MW4 4380   2.255   2.453   2.015  0.0117  0.1288 -0.0131
 1096SOL     OW 4381   2.253   2.702   1.936  0.2388  0.2926  0.5181
 1096SOL    HW2 4382   2.179   2.759   1.958 -1.2542 -1.6344  0.6651
 1096SOL    HW3 4383   2.246   2.689   1.842  1.3096  1.3424  0.2926
 1096SOL    MW4 4384   2.242   2.708   1.927  0.1831  0.1769  0.5077
 1097SOL     OW 4385   2.463   2.849   2.033 -0.0995  0.1294 -0.1447
 1097SOL    HW2 4386   2.459   2.933   1.987 -0.6907  0.4122  0.4203
 1097SOL    HW3 4387   2.393   2.796   1.993  1.2067 -0.6212 -1.5116
 1097SOL    MW4 4388   2.453   2.853   2.021 -0.0052  0.0677 -0.2505
 1098SOL     OW 4389   2.475   3.096   1.908  0.4355  0.0775 -0.0589
 1098SOL    HW2 4390   2.404   3.156   1.931  1.3220  0.4275  1.9167
 1098SOL    HW3 4391   2.466   3.082   1.814 -1.7486  0.7585  0.0207
 1098SOL    MW4 4392   2.464   3.102   1.899  0.2643  0.2135  0.2122
 1099SOL     OW 4393   2.274   3.294   2.007 -0.1126 -0.3415  0.4208
 1099SOL    HW2 4394   2.280   3.278   2.101  1.9374 -1.0805  0.1951
 1099SOL    HW3 4395   2.186   3.265   1.983 -0.7757  0.1973  2.1595
 1099SOL    MW4 4396   2.263   3.288   2.016  0.0703 -0.3679  0.6204
 1100SOL     OW 4397   2.290   3.549   1.909 -0.1538  0.2924  0.7248
 1100SOL    HW2 4398   2.284   3.454   1.914  1.3298  0.0994 -0.7511
 1100SOL    HW3 4399   2.211   3.581   1.953 -1.9760 -1.6508 -1.0588
 1100SOL    MW4 4400   2.279   3.541   1.916 -0.1985  0.0105  0.2947
 1101SOL     OW 4401   2.527   3.657   2.025  0.3490  0.2786  0.0705
 1101SOL    HW2 4402   2.535   3.645   2.120  1.4600 -0.6998 -0.1458
 1101SOL    HW3 4403   2.446   3.611   2.003  1.3104 -1.5037  0.2003
 1101SOL    MW4 4404   2.517   3.650   2.035  0.6224 -0.0856  0.0591
 1102SOL     OW 4405   2.500   3.910   1.860 -0.1676  0.8054 -0.1084
 1102SOL    HW2 4406   2.411   3.939   1.879 -1.1427 -1.6220 -0.6333
 1102SOL    HW3 4407   2.510   3.829   1.910  0.4023 -0.8840 -2.8339
 1102SOL    MW4 4408   2.489   3.903   1.869 -0.2211  0.2623 -0.5372
 1103SOL     OW 4409   2.267   4.018   1.944 -0.0981  0.2350  0.1047
 1103SOL    HW2 4410   2.272   4.016   2.039  0.7434  1.2785  0.0973
 1103SOL    HW3 4411   2.266   4.112   1.922 -0.9553  0.0125 -0.8797
 1103SOL    MW4 4412   2.268   4.030   1.954 -0.1002  0.3433 -0.0261
 1104SOL     OW 4413   2.260   4.296   1.870  0.0961 -0.6604  0.1563
 1104SOL    HW2 4414   2.337   4.331   1.914  0.1208 -0.9156  0.3207
 1104SOL    HW3 4415   2.293   4.262   1.787  0.1553 -0.7348  0.2102
 1104SOL    MW4 4416   2.275   4.296   1.865  0.1072 -0.7039  0.1851
 1105SOL     OW 4417   2.460   4.413   2.017  0.6467 -0.1808  0.0810
 1105SOL    HW2 4418   2.434   4.412   2.109  1.0145  1.2752  0.2169
 1105SOL    HW3 4419   2.540   4.360   2.013  1.3198  0.7659  0.8275
 1105SOL    MW4 4420   2.467   4.406   2.028  0.7841  0.1362  0.1974
 1106SOL     OW 4421   2.885   4.628   1.916 -0.0489  0.2678  0.3634
 1106SOL    HW2 4422   2.970   4.665   1.940 -0.5102  0.7511  1.2759
 1106SOL    HW3 4423   2.891   4.536   1.943  0.6727 -0.0544 -0.8374
 1106SOL    MW4 4424   2.897   4.620   1.922 -0.0146  0.2891  0.3254
 1107SOL     OW 4425   2.698   0.129   2.010  0.3009  0.0362 -0.1017
 1107SOL    HW2 4426   2.692   0.122   2.105 -1.7088 -2.4258 -0.3566
 1107SOL    HW3 4427   2.767   0.068   1.985  1.7587  1.6706 -0.1413
 1107SOL    MW4 4428   2.706   0.120   2.019  0.2281 -0.0730 -0.1406
 1108SOL     OW 4429   2.686   0.388   1.927  0.1160  0.5414  0.4446
 1108SOL    HW2 4430   2.776   0.419   1.936  0.2798 -0.4309  2.3089
 1108SOL    HW3 4431   2.690   0.295   1.951 -1.3947  0.4910  0.5640
 1108SOL    MW4 4432   2.699   0.380   1.931 -0.0617  0.4065  0.7063
 1109SOL     OW 4433   2.947   0.475   1.971  0.4524  0.2119  0.1532
 1109SOL    HW2 4434   3.012   0.429   1.918 -0.4668 -1.2542  0.2683
 1109SOL    HW3 4435   2.945   0.564   1.934 -0.4996 -0.8926 -2.5978
 1109SOL    MW4 4436   2.955   0.481   1.959  0.2055 -0.1272 -0.1946
 1110SOL     OW 4437   2.927   0.731   1.898  0.1540  0.5605  0.2948
 1110SOL    HW2 4438   3.008   0.774   1.924  0.5078  0.2357 -0.2719
 1110SOL    HW3 4439   2.859   0.776   1.948  0.4010  2.4264 -1.0083
 1110SOL    MW4 4440   2.928   0.743   1.908  0.2332  0.7638  0.0481
 1111SOL     OW 4441   2.726   0.864   2.021  0.4608 -0.1822 -0.1000
 1111SOL    HW2 4442   2.740   0.956   1.996  0.5389 -0.0050  0.5863
 1111SOL    HW3 4443   2.641   0.841   1.982  0.0890  0.4060  0.3605
 1111SOL    MW4 4444   2.717   0.873   2.012  0.4221 -0.0812  0.0513
 1112SOL     OW 4445   2.720   1.130   1.905 -0.2002  0.1038  0.3895
 1112SOL    HW2 4446   2.638   1.149   1.952  0.0984 -0.3432  1.0948
 1112SOL    HW3 4447   2.703   1.160   1.816 -1.5019 -0.8941  0.2797
 1112SOL    MW4 4448   2.707   1.137   1.899 -0.3325 -0.0869  0.4681
 1113SOL     OW 4449   2.961   1.274   1.954  0.4489  0.1037  0.2832
 1113SOL    HW2 4450   2.957   1.365   1.926  0.6173  0.5212  1.6121
 1113SOL    HW3 4451   2.873   1.240   1.937  0.1344  0.7515  0.5968
 1113SOL    MW4 4452   2.949   1.281   1.948  0.4296  0.2443  0.4999
 1114SOL     OW 4453   2.954   1.543   1.886 -0.2250 -0.1017  0.2576
 1114SOL    HW2 4454   3.029   1.592   1.918  0.7195 -1.4500  0.1749
 1114SOL    HW3 4455   2.961   1.548   1.790 -0.9595  0.8330  0.2500
 1114SOL    MW4 4456   2.965   1.550   1.877 -0.1973 -0.1563  0.2457
 1115SOL     OW 4457   2.709   1.680   1.946 -0.0202 -0.9000 -0.1806
 1115SOL    HW2 4458   2.787   1.629   1.926 -0.7218 -1.7555 -0.8042
 1115SOL    HW3 4459   2.637   1.618   1.935 -0.9245  0.3109 -1.2468
 1115SOL    MW4 4460   2.709   1.665   1.942 -0.2321 -0.8531 -0.4035
 1116SOL     OW 4461   2.711   1.953   1.832  0.2239 -0.2318  0.1088
 1116SOL    HW2 4462   2.771   2.007   1.883 -1.5362 -0.0076  2.0589
 1116SOL    HW3 4463   2.719   1.865   1.871 -0.2923 -0.3173  0.0352
 1116SOL    MW4 4464   2.720   1.948   1.844 -0.0764 -0.2135  0.3564
 1117SOL     OW 4465   2.929   2.073   1.958  0.0623 -0.1120 -0.1907
 1117SOL    HW2 4466   2.924   2.086   2.053  1.8482  1.4351 -0.2800
 1117SOL    HW3 4467   3.009   2.023   1.945  0.2895  0.4539 -0.9610
 1117SOL    MW4 4468   2.939   2.068   1.969  0.3279  0.1668 -0.3041
 1118SOL     OW 4469   2.904   2.334   1.863  0.0226  0.2704  0.1177
 1118SOL    HW2 4470   2.993   2.368   1.862  0.1930 -0.1342  0.9380
 1118SOL    HW3 4471   2.915   2.239   1.870 -0.4299 -0.0849 -3.2592
 1118SOL    MW4 4472   2.917   2.326   1.864 -0.0146  0.1701 -0.2196
 1119SOL     OW 4473   2.689   2.461   1.994  0.2301  0.0205 -0.4155
 1119SOL    HW2 4474   2.695   2.554   1.973 -1.6722  0.3037  0.1506
 1119SOL    HW3 4475   2.770   2.423   1.961  0.8291  1.8044 -1.0409
 1119SOL    MW4 4476   2.700   2.468   1.987  0.0582  0.2932 -0.4234
 1120SOL     OW 4477   2.688   2.730   1.894 -0.2790  0.2292  0.4254
 1120SOL    HW2 4478   2.625   2.773   1.951  0.8977  2.1778  0.3042
 1120SOL    HW3 4479   2.653   2.740   1.806 -1.0594 -0.9418  0.5983
 1120SOL    MW4 4480   2.675   2.737   1.890 -0.2267  0.3318  0.4322
 1121SOL     OW 4481   2.933   2.825   1.950  0.4727  0.4361  0.1468
 1121SOL    HW2 4482   2.929   2.915   1.919 -0.3651  0.5544  0.5787
 1121SOL    HW3 4483   2.847   2.788   1.927  0.5422 -0.0272  0.6297
 1121SOL    MW4 4484   2.921   2.832   1.943  0.3714  0.3906  0.2675
 1122SOL     OW 4485   2.902   3.107   1.895 -0.7469 -0.0659  0.2980
 1122SOL    HW2 4486   2.978   3.150   1.934 -0.7603 -0.0661  0.3245
 1122SOL    HW3 4487   2.827   3.158   1.925 -1.0392 -1.9517  2.9026
 1122SOL    MW4 4488   2.902   3.119   1.904 -0.7873 -0.3147  0.6452
 1123SOL     OW 4489   2.684   3.256   1.970  0.1171  0.5097 -0.0370
 1123SOL    HW2 4490   2.673   3.336   1.919  1.0269  0.0440 -0.9965
 1123SOL    HW3 4491   2.613   3.199   1.941  0.3973  0.3942 -0.5064
 1123SOL    MW4 4492   2.673   3.259   1.960  0.2741  0.4330 -0.2255
 1124SOL     OW 4493   2.672   3.519   1.851  0.2267  0.4795 -0.5541
 1124SOL    HW2 4494   2.757   3.550   1.882 -0.0560  1.2371 -0.5273
 1124SOL    HW3 4495   2.609   3.583   1.885 -0.4117 -0.3614 -0.1467
 1124SOL    MW4 4496   2.675   3.532   1.859  0.1052  0.4685 -0.4968
 1125SOL     OW 4497   2.913   3.643   1.947 -0.1644 -0.0769 -0.6155
 1125SOL    HW2 4498   2.929   3.638   2.041 -1.9140  1.2967 -0.2322
 1125SOL    HW3 4499   2.993   3.607   1.908  0.4214 -1.0339  1.3830
 1125SOL    MW4 4500   2.926   3.637   1.954 -0.3179 -0.0219 -0.3012
 1126SOL     OW 4501   2.921   3.899   1.871  0.2821  0.4068 -0.1624
 1126SOL    HW2 4502   2.910   3.806   1.892  2.7586  0.7887  3.3206
 1126SOL    HW3 4503   2.954   3.900   1.781  1.0360 -2.1550  0.0461
 1126SOL    MW4 4504   2.924   3.887   1.862  0.7083  0.1192  0.3247
 1127SOL     OW 4505   2.709   4.014   2.007 -0.7315 -0.1518  0.2753
 1127SOL    HW2 4506   2.786   3.986   1.957 -0.9715  1.2954 -0.9421
 1127SOL    HW3 4507   2.635   3.986   1.954 -0.9859  1.5613 -0.3269
 1127SOL    MW4 4508   2.709   4.007   1.993 -0.7968  0.2651  0.0352
 1128SOL     OW 4509   2.682   4.266   1.907 -0.2018 -0.3871 -0.1814
 1128SOL    HW2 4510   2.681   4.177   1.942 -1.4664 -0.5479 -0.6100
 1128SOL    HW3 4511   2.688   4.254   1.812  1.7140  0.0267 -0.1304
 1128SOL    MW4 4512   2.683   4.253   1.899 -0.1159 -0.3537 -0.2312
 1129SOL     OW 4513   2.929   4.350   2.011 -0.3035 -0.8068 -0.0862
 1129SOL    HW2 4514   2.915   4.356   2.106  1.6700  1.0795  0.1240
 1129SOL    HW3 4515   2.845   4.318   1.977 -1.8372  0.8012  2.0310
 1129SOL    MW4 4516   2.916   4.346   2.019 -0.2455 -0.3458  0.2209
 1130SOL     OW 4517   3.407   4.657   1.887 -0.3899  0.5455 -0.1227
 1130SOL    HW2 4518   3.416   4.573   1.931 -1.2065  0.1457 -0.7222
 1130SOL    HW3 4519   3.393   4.636   1.795  0.9322  1.3725 -0.5341
 1130SOL    MW4 4520   3.406   4.643   1.881 -0.3232  0.6019 -0.2561
 1131SOL     OW 4521   3.144   0.040   1.963  0.0597 -0.1082  0.2763
 1131SOL    HW2 4522   3.148   0.065   2.055 -0.3518  1.3451 -0.0753
 1131SOL    HW3 4523   3.235   0.039   1.934  0.1915 -0.5896  0.6993
 1131SOL    MW4 4524   3.157   0.043   1.971  0.0228  0.0200  0.2858
 1132SOL     OW 4525   3.167   0.317   1.897  0.0661 -0.4060 -0.5324
 1132SOL    HW2 4526   3.161   0.225   1.922  0.3112 -0.3408 -0.2308
 1132SOL    HW3 4527   3.167   0.316   1.801 -0.7591 -0.6654 -0.5400
 1132SOL    MW4 4528   3.166   0.305   1.887 -0.0105 -0.4317 -0.4936
 1133SOL     OW 4529   3.331   0.518   1.965  0.2171 -0.1434 -0.0428
 1133SOL    HW2 4530   3.416   0.479   1.942 -0.5489 -1.4940 -0.6163
 1133SOL    HW3 4531   3.267   0.452   1.940 -1.0244  0.9517  0.2286
 1133SOL    MW4 4532   3.334   0.504   1.959 -0.0478 -0.1771 -0.0826
 1134SOL     OW 4533   3.340   0.747   1.827 -0.3868 -0.5330 -0.0050
 1134SOL    HW2 4534   3.275   0.792   1.881  0.8699  1.0980  0.1764
 1134SOL    HW3 4535   3.345   0.659   1.864 -1.2638 -0.1602  1.0391
 1134SOL    MW4 4536   3.332   0.741   1.839 -0.3367 -0.2686  0.1567
 1135SOL     OW 4537   3.145   0.890   2.000 -0.2349 -0.7799  0.2764
 1135SOL    HW2 4538   3.133   0.896   2.095 -0.7071 -0.2570  0.1843
 1135SOL    HW3 4539   3.166   0.979   1.972 -0.6669 -0.8173 -0.1885
 1135SOL    MW4 4540   3.146   0.903   2.009 -0.3542 -0.7158  0.2029
 1136SOL     OW 4541   3.201   1.154   1.865 -0.4740  0.3883  0.1542
 1136SOL    HW2 4542   3.267   1.195   1.921  0.0447 -0.9948  0.6015
 1136SOL    HW3 4543   3.117   1.185   1.900 -0.1537 -0.4008  1.6827
 1136SOL    MW4 4544   3.198   1.163   1.877 -0.3633  0.1017  0.4149
 1137SOL     OW 4545   3.409   1.276   2.005 -0.3859 -0.4221  0.5510
 1137SOL    HW2 4546   3.393   1.278   2.099  0.0422 -1.8754  0.6609
 1137SOL    HW3 4547   3.394   1.366   1.976  1.4057  0.4737  2.3236
 1137SOL    MW4 4548   3.404   1.288   2.014 -0.0930 -0.4956  0.7994
 1138SOL     OW 4549   3.397   1.534   1.879  0.0683 -0.0702  0.4457
 1138SOL    HW2 4550   3.475   1.585   1.905 -0.8814  1.1447  0.9526
 1138SOL    HW3 4551   3.323   1.584   1.913 -0.9853 -0.8237 -0.6947
 1138SOL    MW4 4552   3.398   1.548   1.887 -0.1960 -0.0094  0.3621
 1139SOL     OW 4553   3.179   1.680   1.993  0.1183 -0.3096  0.6237
 1139SOL    HW2 4554   3.173   1.684   2.089 -0.1938 -0.8902  0.6303
 1139SOL    HW3 4555   3.177   1.772   1.966 -0.8765 -0.1748  1.1145
 1139SOL    MW4 4556   3.178   1.693   2.002 -0.0541 -0.3684  0.6893
 1140SOL     OW 4557   3.164   1.935   1.886 -0.4255  0.5731  0.0373
 1140SOL    HW2 4558   3.248   1.971   1.914  0.2107 -0.6914 -0.2294
 1140SOL    HW3 4559   3.167   1.937   1.790  0.5865 -2.3547 -0.0283
 1140SOL    MW4 4560   3.176   1.940   1.877 -0.2080  0.0200 -0.0066
 1141SOL     OW 4561   3.401   2.061   1.977 -0.3971  0.2351 -0.3956
 1141SOL    HW2 4562   3.481   2.021   1.941 -0.1459  1.7415 -1.5760
 1141SOL    HW3 4563   3.401   2.150   1.941 -1.8692  0.7149  0.7542
 1141SOL    MW4 4564   3.412   2.068   1.968 -0.5582  0.4972 -0.3997
 1142SOL     OW 4565   3.415   2.322   1.847  0.6439 -0.0642  0.1171
 1142SOL    HW2 4566   3.338   2.378   1.854 -0.3619 -1.4531  0.4291
 1142SOL    HW3 4567   3.420   2.299   1.754  1.4038  1.0087 -0.1134
 1142SOL    MW4 4568   3.406   2.326   1.836  0.6114 -0.1059  0.1278
 1143SOL     OW 4569   3.172   2.439   1.917  0.3050  0.0440  0.5118
 1143SOL    HW2 4570   3.176   2.436   2.012 -0.5129  0.3069  0.5557
 1143SOL    HW3 4571   3.170   2.533   1.896 -0.3279 -0.0268  0.2675
 1143SOL    MW4 4572   3.173   2.451   1.926  0.1136  0.0693  0.4854
 1144SOL     OW 4573   3.161   2.712   1.826 -0.1749  0.1111 -0.1060
 1144SOL    HW2 4574   3.078   2.734   1.866 -0.1989  0.5474 -0.3890
 1144SOL    HW3 4575   3.139   2.691   1.735 -0.1008 -0.6963  0.0644
 1144SOL    MW4 4576   3.147   2.712   1.819 -0.1683  0.0621 -0.1209
 1145SOL     OW 4577   3.382   2.855   1.931  0.2556  0.5698  0.0296
 1145SOL    HW2 4578   3.358   2.828   2.020  0.4831 -1.1383 -0.4061
 1145SOL    HW3 4579   3.323   2.806   1.874  0.9646  0.6859 -0.8204
 1145SOL    MW4 4580   3.371   2.845   1.935  0.3792  0.3598 -0.1401
 1146SOL     OW 4581   3.374   3.126   1.860 -0.0006 -0.1163  0.1482
 1146SOL    HW2 4582   3.453   3.165   1.895  0.7783 -0.6731 -0.9606
 1146SOL    HW3 4583   3.381   3.033   1.884 -0.2867 -0.1778 -0.0061
 1146SOL    MW4 4584   3.385   3.119   1.868  0.0644 -0.1979 -0.0185
 1147SOL     OW 4585   3.138   3.235   1.965  1.1275  0.0178 -0.3180
 1147SOL    HW2 4586   3.131   3.322   1.927  0.1369 -0.5513 -1.4497
 1147SOL    HW3 4587   3.218   3.199   1.927  0.3328 -0.4143 -1.6028
 1147SOL    MW4 4588   3.148   3.242   1.955  0.8920 -0.1143 -0.6368
 1148SOL     OW 4589   3.150   3.506   1.855 -0.1176 -0.1150 -0.4218
 1148SOL    HW2 4590   3.227   3.533   1.906  0.8570  0.7064 -2.2645
 1148SOL    HW3 4591   3.185   3.487   1.768 -1.6874 -1.8962 -0.6813
 1148SOL    MW4 4592   3.165   3.507   1.850 -0.1961 -0.2417 -0.6992
 1149SOL     OW 4593   3.355   3.614   1.999  0.0013  0.1724  0.0510
 1149SOL    HW2 4594   3.436   3.585   1.957 -0.9115  0.0849 -1.6907
 1149SOL    HW3 4595   3.348   3.707   1.977  0.0029  0.3659  0.8426
 1149SOL    MW4 4596   3.365   3.622   1.991 -0.1189  0.1864 -0.0744
 1150SOL     OW 4597   3.379   3.870   1.893  0.1992 -0.2676 -0.3557
 1150SOL    HW2 4598   3.303   3.928   1.901  1.6679  1.8593 -1.0597
 1150SOL    HW3 4599   3.386   3.854   1.799  0.8362 -0.1303 -0.3326
 1150SOL    MW4 4600   3.370   3.876   1.881  0.4770  0.0312 -0.4455
 1151SOL     OW 4601   3.172   4.028   1.967  0.2035  0.3704  0.0630
 1151SOL    HW2 4602   3.173   4.020   2.062 -1.1747  2.8185  0.3081
 1151SOL    HW3 4603   3.092   3.985   1.940  0.0405  0.6380  0.1158
 1151SOL    MW4 4604   3.162   4.022   1.976  0.0002  0.7287  0.1023
 1152SOL     OW 4605   3.161   4.281   1.885  0.6195  0.4804 -0.0278
 1152SOL    HW2 4606   3.166   4.188   1.909 -0.6151 -0.0415 -1.6437
 1152SOL    HW3 4607   3.079   4.312   1.924 -0.4022  0.1296 -1.8275
 1152SOL    MW4 4608   3.151   4.273   1.893  0.3218  0.3653 -0.4784
 1153SOL     OW 4609   3.380   4.412   2.002 -0.9348  0.0406  0.2769
 1153SOL    HW2 4610   3.447   4.370   1.949 -0.5182  2.4812 -1.1949
 1153SOL    HW3 4611   3.297   4.385   1.962 -0.7749 -1.1457  0.7194
 1153SOL    MW4 4612   3.378   4.403   1.990 -0.8588  0.2061  0.1411
 1154SOL     OW 4613   3.828   4.659   1.880 -0.2487 -0.0663  0.5564
 1154SOL    HW2 4614   3.801   4.570   1.900  0.1038 -0.2506  0.2122
 1154SOL    HW3 4615   3.761   4.714   1.922 -0.3153 -0.4795  1.0008
 1154SOL    MW4 4616   3.816   4.655   1.888 -0.2110 -0.1451  0.5697
 1155SOL     OW 4617   3.620   0.139   1.984 -0.2351 -0.0582 -0.3317
 1155SOL    HW2 4618   3.611   0.122   2.078  1.1805 -0.9207 -0.3458
 1155SOL    HW3 4619   3.549   0.089   1.943 -0.3437 -0.3366  0.1977
 1155SOL    MW4 4620   3.609   0.130   1.991 -0.0627 -0.2088 -0.2637
 1156SOL     OW 4621   3.566   0.394   1.862 -0.3155 -0.3831  0.2460
 1156SOL    HW2 4622   3.561   0.315   1.917 -0.3534 -1.1143 -0.7955
 1156SOL    HW3 4623   3.577   0.360   1.773  1.3276  0.8251 -0.0172
 1156SOL    MW4 4624   3.567   0.379   1.858 -0.1037 -0.3202  0.0739
 1157SOL     OW 4625   3.815   0.497   1.951  0.5774  0.1245 -0.1732
 1157SOL    HW2 4626   3.803   0.590   1.931  0.1066 -0.1705 -1.3073
 1157SOL    HW3 4627   3.736   0.455   1.918  0.3535 -0.5608  1.2097
 1157SOL    MW4 4628   3.803   0.504   1.944  0.4857 -0.0049 -0.1403
 1158SOL     OW 4629   3.813   0.793   1.901  0.3025 -0.3481 -0.0958
 1158SOL    HW2 4630   3.728   0.837   1.913 -0.3492 -1.6741  0.2039
 1158SOL    HW3 4631   3.817   0.776   1.807 -0.0082 -0.7562 -0.0380
 1158SOL    MW4 4632   3.802   0.797   1.890  0.1755 -0.5769 -0.0486
 1159SOL     OW 4633   3.560   0.872   1.960 -0.2034  0.0968  0.2472
 1159SOL    HW2 4634   3.572   0.959   1.921  1.8345 -0.2310  0.0604
 1159SOL    HW3 4635   3.475   0.843   1.928 -0.0822  1.2650 -1.2142
 1159SOL    MW4 4636   3.551   0.880   1.950  0.0814  0.2077  0.0297
 1160SOL     OW 4637   3.593   1.114   1.866 -0.4180 -0.4017  0.1812
 1160SOL    HW2 4638   3.528   1.166   1.913 -1.5595 -1.9452  0.3564
 1160SOL    HW3 4639   3.575   1.129   1.773 -0.4832 -0.1512  0.2366
 1160SOL    MW4 4640   3.582   1.123   1.860 -0.5772 -0.5723  0.2116
 1161SOL     OW 4641   3.788   1.313   1.970 -0.0790 -0.3204 -0.4020
 1161SOL    HW2 4642   3.803   1.295   2.063  1.2809 -1.5513 -0.8384
 1161SOL    HW3 4643   3.716   1.255   1.945 -1.5578  1.1940  0.2508
 1161SOL    MW4 4644   3.780   1.303   1.979 -0.0947 -0.2830 -0.3735
 1162SOL     OW 4645   3.829   1.570   1.835 -0.2981  0.4247 -0.0352
 1162SOL    HW2 4646   3.908   1.618   1.859  0.9739 -0.8761 -1.4491
 1162SOL    HW3 4647   3.829   1.493   1.892  0.2271 -0.2943 -0.9936
 1162SOL    MW4 4648   3.839   1.566   1.845 -0.0610  0.1582 -0.3482
 1163SOL     OW 4649   3.631   1.666   2.010  0.3129  0.0017  0.4155
 1163SOL    HW2 4650   3.624   1.758   1.985 -0.0916 -0.4188 -1.0673
 1163SOL    HW3 4651   3.710   1.635   1.965 -0.8644 -0.9601 -1.0435
 1163SOL    MW4 4652   3.640   1.674   2.001  0.1042 -0.1807  0.0273
 1164SOL     OW 4653   3.620   1.945   1.898 -0.1179 -0.2202 -0.0580
 1164SOL    HW2 4654   3.709   1.975   1.913 -0.8699  2.5132 -0.8368
 1164SOL    HW3 4655   3.613   1.934   1.803 -0.1061 -2.2181  0.1351
 1164SOL    MW4 4656   3.631   1.947   1.888 -0.2155 -0.1231 -0.1353
 1165SOL     OW 4657   3.874   2.082   1.965 -0.0331  0.4070 -0.3772
 1165SOL    HW2 4658   3.938   2.033   1.912 -1.9721 -0.8974 -1.5987
 1165SOL    HW3 4659   3.861   2.164   1.918  0.0331  0.2766 -0.6211
 1165SOL    MW4 4660   3.881   2.086   1.952 -0.2802  0.2177 -0.5706
 1166SOL     OW 4661   3.804   2.323   1.856 -0.1308 -0.6816  0.4228
 1166SOL    HW2 4662   3.881   2.374   1.882  0.3759 -0.9343 -0.5843
 1166SOL    HW3 4663   3.730   2.373   1.892  0.5131 -0.6333  1.7085
 1166SOL    MW4 4664   3.804   2.336   1.865  0.0210 -0.7086  0.4595
 1167SOL     OW 4665   3.594   2.459   1.999  0.1110  0.0777 -0.1046
 1167SOL    HW2 4666   3.583   2.539   1.948 -2.6252  0.8751  1.6406
 1167SOL    HW3 4667   3.535   2.396   1.957  0.0370 -0.1230  0.2979
 1167SOL    MW4 4668   3.585   2.461   1.987 -0.2598  0.1564  0.1788
 1168SOL     OW 4669   3.593   2.697   1.880  0.3055 -0.7954 -0.6779
 1168SOL    HW2 4670   3.672   2.744   1.907  0.3029 -1.5951  0.8292
 1168SOL    HW3 4671   3.521   2.751   1.911  0.3023 -1.7572  1.1219
 1168SOL    MW4 4672   3.594   2.710   1.888  0.3047 -1.0278 -0.2416
 1169SOL     OW 4673   3.837   2.831   1.923 -0.1664 -0.6390  0.4951
 1169SOL    HW2 4674   3.821   2.828   2.018  2.1399  0.0941  0.9421
 1169SOL    HW3 4675   3.823   2.923   1.900  1.7091 -0.3269  0.5910
 1169SOL    MW4 4676   3.833   2.842   1.933  0.3853 -0.5011  0.5668
 1170SOL     OW 4677   3.813   3.090   1.895 -0.1371  0.2959  0.5772
 1170SOL    HW2 4678   3.740   3.141   1.929 -1.0607 -0.8828  0.4016
 1170SOL    HW3 4679   3.808   3.101   1.800 -0.9110 -0.8471  0.4698
 1170SOL    MW4 4680   3.803   3.098   1.887 -0.3611 -0.0104  0.5398
 1171SOL     OW 4681   3.599   3.231   1.995 -0.1422  0.3731 -0.2170
 1171SOL    HW2 4682   3.588   3.232   2.090 -2.4763  0.2831 -0.4569
 1171SOL    HW3 4683   3.608   3.323   1.970  0.9097  0.3704  0.1107
 1171SOL    MW4 4684   3.599   3.243   2.004 -0.3113  0.3609 -0.2054
 1172SOL     OW 4685   3.625   3.489   1.928  0.0242  0.1209  0.7182
 1172SOL    HW2 4686   3.695   3.546   1.960  0.7422  0.1185 -0.7657
 1172SOL    HW3 4687   3.625   3.504   1.833 -2.1393  0.2733  0.7315
 1172SOL    MW4 4688   3.634   3.499   1.919 -0.1665  0.1407  0.5242
 1173SOL     OW 4689   3.853   3.631   1.990  0.0236 -0.3563  0.3281
 1173SOL    HW2 4690   3.917   3.578   1.942  0.3054 -0.7726  1.1556
 1173SOL    HW3 4691   3.851   3.715   1.944  1.6012 -0.1307  0.6616
 1173SOL    MW4 4692   3.861   3.635   1.977  0.2689 -0.3815  0.4813
 1174SOL     OW 4693   3.808   3.879   1.841  0.1500 -0.1075  0.2546
 1174SOL    HW2 4694   3.730   3.913   1.885  0.2640  1.2578 -0.5691
 1174SOL    HW3 4695   3.790   3.892   1.748  1.7818  1.1611  0.0983
 1174SOL    MW4 4696   3.795   3.886   1.835  0.3803  0.2400  0.1253
 1175SOL     OW 4697   3.608   3.994   1.965  0.2958 -0.1386  0.4943
 1175SOL    HW2 4698   3.618   4.001   2.060  1.4547 -3.9114  0.7453
 1175SOL    HW3 4699   3.526   3.946   1.953  0.1026  0.4052 -0.4319
 1175SOL    MW4 4700   3.598   3.989   1.976  0.4232 -0.5646  0.4052
 1176SOL     OW 4701   3.562   4.268   1.874 -0.2875 -0.5769  0.4776
 1176SOL    HW2 4702   3.636   4.311   1.915  0.8633 -1.5155 -0.5888
 1176SOL    HW3 4703   3.580   4.174   1.882 -1.4168 -0.8256  0.3302
 1176SOL    MW4 4704   3.574   4.261   1.880 -0.2846 -0.7335  0.3174
 1177SOL     OW 4705   3.777   4.407   1.980  0.7013 -0.3402 -0.0222
 1177SOL    HW2 4706   3.764   4.407   2.075  0.1734  0.4205 -0.0952
 1177SOL    HW3 4707   3.866   4.372   1.969  0.5140 -1.0779  0.7080
 1177SOL    MW4 4708   3.787   4.402   1.991  0.6070 -0.3372  0.0646
 1178SOL     OW 4709   4.277   4.620   1.889 -0.0033 -0.0096 -0.0733
 1178SOL    HW2 4710   4.210   4.678   1.926  0.3912 -0.4746  1.3938
 1178SOL    HW3 4711   4.360   4.663   1.911  0.2411 -0.4130 -0.2094
 1178SOL    MW4 4712   4.279   4.633   1.897  0.0810 -0.1242  0.1023
 1179SOL     OW 4713   4.067   0.109   1.968 -0.2503 -0.3805 -0.3105
 1179SOL    HW2 4714   4.074   0.097   2.063 -1.4799 -0.3817 -0.2204
 1179SOL    HW3 4715   3.985   0.067   1.944 -0.7126  0.9704 -1.1484
 1179SOL    MW4 4716   4.057   0.102   1.977 -0.4735 -0.2024 -0.4091
 1180SOL     OW 4717   4.068   0.375   1.908  0.4826 -0.0882  0.4413
 1180SOL    HW2 4718   4.059   0.285   1.937 -0.3071  0.4589  1.9471
 1180SOL    HW3 4719   3.980   0.412   1.918  0.9950  1.0869  0.6748
 1180SOL    MW4 4720   4.055   0.368   1.913  0.4460  0.1390  0.6708
 1181SOL     OW 4721   4.301   0.475   2.008 -0.1168  0.4680  0.6347
 1181SOL    HW2 4722   4.311   0.475   2.104  0.5902  0.9384  0.5668
 1181SOL    HW3 4723   4.226   0.418   1.992  0.9037 -1.0991  1.3614
 1181SOL    MW4 4724   4.293   0.468   2.019  0.1111  0.3233  0.7216
 1182SOL     OW 4725   4.277   0.728   1.884 -0.1597  0.2536  0.2312
 1182SOL    HW2 4726   4.292   0.646   1.931 -1.3705 -0.3463 -0.3780
 1182SOL    HW3 4727   4.265   0.700   1.793  0.8767  1.2613 -0.2220
 1182SOL    MW4 4728   4.277   0.713   1.878 -0.1827  0.3074  0.0910
 1183SOL     OW 4729   4.064   0.880   1.978 -0.2861  0.4005 -0.1605
 1183SOL    HW2 4730   4.129   0.814   1.950 -0.5960  0.6737 -1.5760
 1183SOL    HW3 4731   3.980   0.841   1.955 -0.6117  0.1945  1.3675
 1183SOL    MW4 4732   4.062   0.866   1.971 -0.3700  0.4094 -0.1457
 1184SOL     OW 4733   4.046   1.154   1.893 -0.2320  0.0634  0.1509
 1184SOL    HW2 4734   4.050   1.068   1.935 -0.4966 -0.3317 -0.6120
 1184SOL    HW3 4735   3.960   1.189   1.918  0.9473  1.2758  2.6648
 1184SOL    MW4 4736   4.035   1.147   1.902 -0.1113  0.1712  0.3820
 1185SOL     OW 4737   4.278   1.290   1.969 -0.4733 -0.3210  0.5579
 1185SOL    HW2 4738   4.265   1.305   2.062 -3.0654 -1.1643  0.3721
 1185SOL    HW3 4739   4.201   1.239   1.941 -0.3774  0.9715 -2.2886
 1185SOL    MW4 4740   4.266   1.285   1.977 -0.8026 -0.2617  0.1578
 1186SOL     OW 4741   4.316   1.563   1.870 -0.5021 -0.0493  0.0888
 1186SOL    HW2 4742   4.299   1.472   1.895 -1.7069  0.0504 -0.3506
 1186SOL    HW3 4743   4.296   1.567   1.777  2.1259  0.0512 -0.5127
 1186SOL    MW4 4744   4.311   1.551   1.861 -0.3144 -0.0229 -0.0486
 1187SOL     OW 4745   4.053   1.687   1.931 -0.1215 -0.0350  0.2797
 1187SOL    HW2 4746   4.048   1.716   2.022 -0.4997 -2.5227  1.0767
 1187SOL    HW3 4747   4.140   1.647   1.923  0.5377  1.5605 -0.9126
 1187SOL    MW4 4748   4.064   1.686   1.942 -0.0844 -0.1527  0.2275
 1188SOL     OW 4749   4.090   1.940   1.833  0.2383 -0.0984 -0.4611
 1188SOL    HW2 4750   4.082   1.851   1.868 -1.8829  0.8449  1.5127
 1188SOL    HW3 4751   4.082   1.929   1.738  0.1363 -2.0325 -0.2431
 1188SOL    MW4 4752   4.088   1.927   1.825 -0.0550 -0.2292 -0.1719
 1189SOL     OW 4753   4.298   2.034   1.988  0.1625 -0.5872  0.1303
 1189SOL    HW2 4754   4.292   2.034   2.083 -1.2707 -0.5093  0.0469
 1189SOL    HW3 4755   4.209   2.015   1.958  0.7556 -1.3899 -1.1860
 1189SOL    MW4 4756   4.286   2.031   1.996  0.0517 -0.6828 -0.0543
 1190SOL     OW 4757   4.273   2.283   1.899 -0.2779 -0.2529 -0.5368
 1190SOL    HW2 4758   4.291   2.199   1.941 -1.7533 -0.7741 -0.9194
 1190SOL    HW3 4759   4.352   2.335   1.915  0.3988 -1.4897  0.2396
 1190SOL    MW4 4760   4.286   2.279   1.907 -0.3833 -0.4848 -0.4848
 1191SOL     OW 4761   4.052   2.428   1.965  0.1360 -0.1685  0.0049
 1191SOL    HW2 4762   4.053   2.442   2.060 -1.4679 -2.2661  0.3818
 1191SOL    HW3 4763   4.127   2.372   1.947 -0.3336 -0.8810  0.2457
 1191SOL    MW4 4764   4.062   2.423   1.975 -0.1376 -0.5393  0.0864
 1192SOL     OW 4765   4.084   2.695   1.861 -0.2278 -0.4925 -0.1133
 1192SOL    HW2 4766   4.074   2.609   1.904  1.1310  0.6061  2.5354
 1192SOL    HW3 4767   4.009   2.746   1.891 -0.1481 -0.2219 -0.3684
 1192SOL    MW4 4768   4.073   2.690   1.871 -0.0380 -0.3118  0.2025
 1193SOL     OW 4769   4.268   2.873   1.963 -0.1597 -0.4328 -0.3820
 1193SOL    HW2 4770   4.267   2.861   2.058 -0.9179 -0.4836 -0.3887
 1193SOL    HW3 4771   4.208   2.806   1.930 -0.5685  0.1452 -0.8233
 1193SOL    MW4 4772   4.260   2.863   1.971 -0.3137 -0.3633 -0.4411
 1194SOL     OW 4773   4.235   3.126   1.852  0.4705  0.4521  0.1073
 1194SOL    HW2 4774   4.170   3.166   1.910  0.6727  0.3795  0.3912
 1194SOL    HW3 4775   4.262   3.047   1.898  0.8010  0.5125  0.0198
 1194SOL    MW4 4776   4.230   3.121   1.866  0.5408  0.4505  0.1332
 1195SOL     OW 4777   4.035   3.262   2.004 -0.3559  0.1152  0.1407
 1195SOL    HW2 4778   4.025   3.265   2.099 -0.9136 -1.2644  0.1446
 1195SOL    HW3 4779   3.966   3.201   1.975  0.7471 -0.6037 -0.9928
 1195SOL    MW4 4780   4.024   3.254   2.013 -0.2839 -0.1617 -0.0083
 1196SOL     OW 4781   4.045   3.488   1.854  1.2262 -0.1279 -0.1514
 1196SOL    HW2 4782   4.114   3.535   1.901  0.3384 -0.3978  1.4727
 1196SOL    HW3 4783   4.038   3.405   1.901 -0.8118  0.2560  0.2524
 1196SOL    MW4 4784   4.053   3.483   1.867  0.8402 -0.1129  0.1161
 1197SOL     OW 4785   4.253   3.651   1.967 -0.4678 -0.3029 -0.5030
 1197SOL    HW2 4786   4.252   3.741   1.934 -0.3112  0.1839  0.7915
 1197SOL    HW3 4787   4.331   3.612   1.928  0.1703  0.5119 -0.0530
 1197SOL    MW4 4788   4.263   3.658   1.957 -0.3629 -0.1312 -0.2729
 1198SOL     OW 4789   4.240   3.909   1.833  0.2882  0.0139 -0.0906
 1198SOL    HW2 4790   4.318   3.950   1.872  0.5161 -0.8307  0.3640
 1198SOL    HW3 4791   4.268   3.886   1.744  0.1945  0.7386 -0.3104
 1198SOL    MW4 4792   4.254   3.911   1.826  0.3059 -0.0019 -0.0596
 1199SOL     OW 4793   4.020   4.003   1.962  0.2201 -0.3304  0.3350
 1199SOL    HW2 4794   4.099   3.965   1.924 -0.3177  0.0026 -1.1569
 1199SOL    HW3 4795   3.948   3.956   1.920 -0.3920 -1.4907  2.5901
 1199SOL    MW4 4796   4.021   3.992   1.951  0.0684 -0.4396  0.4357
 1200SOL     OW 4797   4.017   4.264   1.880 -0.8431  0.0019 -0.4672
 1200SOL    HW2 4798   4.093   4.309   1.917 -1.0264  0.1964 -0.3240
 1200SOL    HW3 4799   4.031   4.171   1.902 -1.0521  0.1415  0.2776
 1200SOL    MW4 4800   4.028   4.257   1.888 -0.8949  0.0460 -0.3500
 1201SOL     OW 4801   4.264   4.363   2.003  0.1066 -0.2714  0.5187
 1201SOL    HW2 4802   4.268   4.377   2.097 -0.1312 -1.2506  0.6844
 1201SOL    HW3 4803   4.271   4.450   1.965  0.7473  0.0787  1.4289
 1201SOL    MW4 4804   4.266   4.376   2.010  0.1597 -0.3544  0.6607
 1202SOL     OW 4805   0.255   4.639   2.354 -0.9166 -0.7855 -0.1927
 1202SOL    HW2 4806   0.254   4.625   2.449  0.0085  2.1015  0.2675
 1202SOL    HW3 4807   0.337   4.685   2.337 -2.3212  1.1511 -2.0106
 1202SOL    MW4 4808   0.265   4.643   2.364 -0.9799 -0.1491 -0.3718
 1203SOL     OW 4809   0.005   0.095   2.274  0.0043  0.1615  0.2219
 1203SOL    HW2 4810   0.087   0.059   2.307 -0.8899 -1.6558  0.5505
 1203SOL    HW3 4811   0.017   0.101   2.180  0.1771 -1.0202  0.1612
 1203SOL    MW4 4812   0.017   0.091   2.266 -0.0909 -0.2342  0.2572
 1204SOL     OW 4813   0.039   0.355   2.389 -0.0269  0.1074  0.1609
 1204SOL    HW2 4814   0.116   0.398   2.352 -0.4389  0.7256  0.0239
 1204SOL    HW3 4815   0.035   0.271   2.345  0.2133  0.3288 -0.2830
 1204SOL    MW4 4816   0.049   0.350   2.379 -0.0495  0.2182  0.0843
 1205SOL     OW 4817   0.228   0.508   2.274  0.4993 -0.6337  0.0220
 1205SOL    HW2 4818   0.311   0.489   2.318  0.8209 -0.2233 -0.4105
 1205SOL    HW3 4819   0.247   0.498   2.181  0.0196 -0.7026 -0.0699
 1205SOL    MW4 4820   0.241   0.504   2.267  0.4784 -0.5886 -0.0472
 1206SOL     OW 4821   0.191   0.788   2.366 -0.0784 -0.3573  0.0280
 1206SOL    HW2 4822   0.174   0.795   2.459 -0.7226  1.9936 -0.2385
 1206SOL    HW3 4823   0.203   0.694   2.350 -1.9411 -0.9684  2.1022
 1206SOL    MW4 4824   0.190   0.776   2.376 -0.4091 -0.1278  0.2665
 1207SOL     OW 4825   4.469   0.907   2.234  0.2674  0.0279 -0.0089
 1207SOL    HW2 4826   4.561   0.894   2.256  0.3256  0.5000  0.0344
 1207SOL    HW3 4827   4.467   0.911   2.138  0.2999  0.0950 -0.0063
 1207SOL    MW4 4828   4.481   0.906   2.224  0.2794  0.0990 -0.0029
 1208SOL     OW 4829   4.485   1.159   2.365  0.1277 -0.3341  0.0867
 1208SOL    HW2 4830   4.479   1.145   2.459 -1.6256 -1.2960 -0.1358
 1208SOL    HW3 4831   4.476   1.072   2.327  0.3169  0.0995 -0.9727
 1208SOL    MW4 4832   4.483   1.146   2.372 -0.0787 -0.4038 -0.0824
 1209SOL     OW 4833   0.231   1.258   2.268 -0.4934 -0.2861 -0.2439
 1209SOL    HW2 4834   0.147   1.220   2.294 -0.1971 -0.4127  0.5349
 1209SOL    HW3 4835   0.220   1.279   2.175 -1.6904  0.5021  0.0639
 1209SOL    MW4 4836   0.218   1.256   2.259 -0.6122 -0.1988 -0.1005
 1210SOL     OW 4837   0.239   1.529   2.351  0.0283 -0.2224  0.2207
 1210SOL    HW2 4838   0.242   1.516   2.446  0.8012  0.2206  0.2635
 1210SOL    HW3 4839   0.256   1.442   2.315 -1.8163 -0.7010  0.4771
 1210SOL    MW4 4840   0.242   1.516   2.359 -0.1131 -0.2271  0.2602
 1211SOL     OW 4841   0.014   1.669   2.260  0.6399 -0.1436  0.4230
 1211SOL    HW2 4842   0.010   1.760   2.289 -0.3536  0.5977 -1.9321
 1211SOL    HW3 4843   0.094   1.634   2.300  2.6229  2.6017 -1.0051
 1211SOL    MW4 4844   0.024   1.676   2.269  0.7705  0.3165 -0.0761
 1212SOL     OW 4845   0.014   1.920   2.370  0.1750  0.4142 -0.2680
 1212SOL    HW2 4846  -0.066   1.958   2.334  0.2865 -0.2397 -1.2249
 1212SOL    HW3 4847   0.084   1.971   2.331  0.3552 -1.1270 -2.0522
 1212SOL    MW4 4848   0.012   1.932   2.360  0.2135  0.1245 -0.6297
 1213SOL     OW 4849   0.220   2.052   2.261  0.2317  0.2649 -0.3527
 1213SOL    HW2 4850   0.299   2.011   2.295  0.2169  0.0915 -0.5238
 1213SOL    HW3 4851   0.232   2.053   2.166 -0.4458 -0.7838 -0.4651
 1213SOL    MW4 4852   0.232   2.046   2.253  0.1403  0.1037 -0.3901
 1214SOL     OW 4853   0.211   2.315   2.314 -0.0997  0.6384 -0.2682
 1214SOL    HW2 4854   0.219   2.311   2.409 -1.0990  0.8599 -0.1722
 1214SOL    HW3 4855   0.214   2.223   2.286 -3.0990  0.3507  0.2633
 1214SOL    MW4 4856   0.213   2.302   2.323 -0.6273  0.6297 -0.1854
 1215SOL     OW 4857   4.490   2.472   2.201  0.2357  0.2639  0.4950
 1215SOL    HW2 4858   4.491   2.555   2.247  0.2538  1.4442 -1.5539
 1215SOL    HW3 4859   4.552   2.417   2.249  1.1407  1.8445  1.1631
 1215SOL    MW4 4860   4.499   2.475   2.213  0.3575  0.6282  0.3128
 1216SOL     OW 4861   4.484   2.726   2.340  0.0996 -0.1584  0.4655
 1216SOL    HW2 4862   4.493   2.718   2.435 -0.5355 -1.5932  0.4232
 1216SOL    HW3 4863   4.551   2.789   2.314  0.5285 -0.0495  1.8218
 1216SOL    MW4 4864   4.494   2.733   2.349  0.0724 -0.3333  0.6388
 1217SOL     OW 4865   0.252   2.862   2.249  0.5579  0.3071  0.2279
 1217SOL    HW2 4866   0.324   2.806   2.276  1.6352  1.2383 -0.6636
 1217SOL    HW3 4867   0.237   2.841   2.157  0.9621  1.4317 -0.1148
 1217SOL    MW4 4868   0.259   2.852   2.240  0.7534  0.5783  0.0651
 1218SOL     OW 4869   0.192   3.113   2.349 -0.3171  0.0771 -0.0261
 1218SOL    HW2 4870   0.118   3.150   2.301 -0.8713 -1.0503 -0.0461
 1218SOL    HW3 4871   0.215   3.033   2.301 -0.2908 -0.5741  1.0489
 1218SOL    MW4 4872   0.185   3.107   2.336 -0.3867 -0.1576  0.1131
 1219SOL     OW 4873   4.452   3.206   2.233 -0.7087  0.1141  0.1712
 1219SOL    HW2 4874   4.470   3.289   2.277 -1.9909 -0.0953  1.1242
 1219SOL    HW3 4875   4.453   3.227   2.140 -1.4425  1.3029  0.4156
 1219SOL    MW4 4876   4.454   3.219   2.226 -0.9747  0.2433  0.3292
 1220SOL     OW 4877   0.012   3.436   2.367 -0.3604 -0.3855 -0.1275
 1220SOL    HW2 4878   0.004   3.435   2.462 -0.2229 -0.1952 -0.1144
 1220SOL    HW3 4879  -0.052   3.501   2.338 -1.0988 -1.1462 -0.2289
 1220SOL    MW4 4880   0.002   3.445   2.376 -0.4397 -0.4607 -0.1392
 1221SOL     OW 4881   0.220   3.610   2.274 -0.3049  0.2865  0.0686
 1221SOL    HW2 4882   0.297   3.568   2.312 -0.7921  0.1971  0.9766
 1221SOL    HW3 4883   0.147   3.551   2.295 -0.6489  0.4771 -0.5904
 1221SOL    MW4 4884   0.220   3.597   2.282 -0.4146  0.2998  0.1015
 1222SOL     OW 4885   0.224   3.863   2.356  0.0804  0.0726  0.1510
 1222SOL    HW2 4886   0.150   3.903   2.311 -0.5745 -0.9354  0.3229
 1222SOL    HW3 4887   0.232   3.776   2.317  1.2275  0.1971  0.0770
 1222SOL    MW4 4888   0.215   3.856   2.345  0.1454 -0.0440  0.1639
 1223SOL     OW 4889   4.481   3.989   2.273  0.1781 -0.2675 -0.4210
 1223SOL    HW2 4890   4.489   4.080   2.300 -2.2149  0.2099 -1.2199
 1223SOL    HW3 4891   4.471   3.993   2.178 -0.7273 -1.3094 -0.3799
 1223SOL    MW4 4892   4.481   4.002   2.264 -0.2571 -0.3420 -0.5210
 1224SOL     OW 4893   0.027   4.233   2.387  0.5470  0.1385 -0.3014
 1224SOL    HW2 4894   0.032   4.230   2.483 -1.2230 -0.6651 -0.1960
 1224SOL    HW3 4895   0.096   4.293   2.361 -0.1707  1.8671  1.6178
 1224SOL    MW4 4896   0.036   4.241   2.397  0.2188  0.2605 -0.0343
 1225SOL     OW 4897   0.225   4.379   2.257  0.3039  0.0579  0.0363
 1225SOL    HW2 4898   0.292   4.322   2.293  0.4114 -0.3100 -0.7397
 1225SOL    HW3 4899   0.245   4.465   2.292  1.4139  0.0277 -0.5093
 1225SOL    MW4 4900   0.236   4.383   2.266  0.4645  0.0054 -0.1381
 1226SOL     OW 4901   0.655   4.649   2.378  0.1698 -0.0352  0.1994
 1226SOL    HW2 4902   0.660   4.669   2.472  0.4286  0.8784  0.0041
 1226SOL    HW3 4903   0.739   4.680   2.344 -0.7014  1.4181 -0.6528
 1226SOL    MW4 4904   0.667   4.656   2.386  0.0890  0.2771  0.0612
 1227SOL     OW 4905   0.453   0.158   2.320  0.2061  0.0251  0.2693
 1227SOL    HW2 4906   0.526   0.104   2.350  0.4817  0.6116  0.6799
 1227SOL    HW3 4907   0.452   0.146   2.225  0.2816 -0.6748  0.3537
 1227SOL    MW4 4908   0.463   0.149   2.312  0.2524  0.0101  0.3347
 1228SOL     OW 4909   0.426   0.422   2.437  0.2894 -0.2742 -0.2469
 1228SOL    HW2 4910   0.421   0.423   2.533  1.7321  0.9948 -0.1679
 1228SOL    HW3 4911   0.430   0.330   2.414  2.1045 -0.5442  1.0648
 1228SOL    MW4 4912   0.426   0.410   2.447  0.7192 -0.1424 -0.0634
 1229SOL     OW 4913   0.660   0.482   2.266  0.6110  0.0675  0.1102
 1229SOL    HW2 4914   0.686   0.565   2.307  0.3235  0.2289 -0.0326
 1229SOL    HW3 4915   0.578   0.459   2.309  1.3067 -0.7705  1.0109
 1229SOL    MW4 4916   0.653   0.490   2.277  0.6649 -0.0218  0.2102
 1230SOL     OW 4917   0.670   0.760   2.373 -0.5148  0.0754 -0.4287
 1230SOL    HW2 4918   0.652   0.746   2.466  1.1903 -2.9703 -0.5069
 1230SOL    HW3 4919   0.591   0.804   2.340 -1.3345  0.7902  2.3318
 1230SOL    MW4 4920   0.657   0.764   2.381 -0.3980 -0.2321 -0.0748
 1231SOL     OW 4921   0.436   0.881   2.280  0.3266  0.1795  0.0448
 1231SOL    HW2 4922   0.352   0.843   2.306 -1.0180  1.5185 -2.1753
 1231SOL    HW3 4923   0.436   0.876   2.185  3.2054 -0.6294  0.0326
 1231SOL    MW4 4924   0.425   0.875   2.271  0.5291  0.2494 -0.2498
 1232SOL     OW 4925   0.440   1.128   2.409 -0.6126 -0.8280  0.0950
 1232SOL    HW2 4926   0.442   1.043   2.365  0.0029 -0.3937 -0.7185
 1232SOL    HW3 4927   0.363   1.172   2.372 -1.7267 -1.5452  1.5035
 1232SOL    MW4 4928   0.430   1.122   2.398 -0.6784 -0.8653  0.1735
 1233SOL     OW 4929   0.662   1.239   2.289 -0.1721 -0.1923  0.2867
 1233SOL    HW2 4930   0.674   1.324   2.332  0.0777 -0.3202  0.4677
 1233SOL    HW3 4931   0.581   1.205   2.326 -1.2294  0.7655 -1.0876
 1233SOL    MW4 4932   0.653   1.246   2.299 -0.2786 -0.0828  0.1293
 1234SOL     OW 4933   0.668   1.489   2.383  0.3602 -0.0183  0.2978
 1234SOL    HW2 4934   0.704   1.504   2.471  0.9314  0.5995 -0.0325
 1234SOL    HW3 4935   0.734   1.526   2.324 -0.7843  1.0547 -0.3293
 1234SOL    MW4 4936   0.681   1.496   2.387  0.2845  0.2048  0.1715
 1235SOL     OW 4937   0.478   1.616   2.223  0.4951  0.4079 -0.1029
 1235SOL    HW2 4938   0.540   1.554   2.261 -0.5220  0.0663  1.0309
 1235SOL    HW3 4939   0.394   1.594   2.264 -0.4084  0.7701 -1.7141
 1235SOL    MW4 4940   0.475   1.605   2.234  0.2417  0.4106 -0.1659
 1236SOL     OW 4941   0.459   1.882   2.327 -0.1040  0.1530 -0.8077
 1236SOL    HW2 4942   0.538   1.923   2.292  0.2122  0.1176 -0.1398
 1236SOL    HW3 4943   0.463   1.792   2.296 -0.2439  0.3406 -1.3682
 1236SOL    MW4 4944   0.470   1.876   2.318 -0.0807  0.1731 -0.7935
 1237SOL     OW 4945   0.674   2.014   2.218  0.0436  0.0427  0.1247
 1237SOL    HW2 4946   0.745   1.972   2.265 -0.7034 -0.4243  0.8530
 1237SOL    HW3 4947   0.668   2.102   2.256 -1.0097 -0.5616  1.4257
 1237SOL    MW4 4948   0.682   2.020   2.229 -0.1940 -0.0986  0.3925
 1238SOL     OW 4949   0.664   2.272   2.321  0.1059 -0.2420  0.4472
 1238SOL    HW2 4950   0.660   2.260   2.416 -2.0989  2.5226  0.7671
 1238SOL    HW3 4951   0.749   2.313   2.306 -0.3846  1.2247  1.5151
 1238SOL    MW4 4952   0.674   2.276   2.331 -0.2497  0.3163  0.6303
 1239SOL     OW 4953   0.439   2.418   2.212 -0.4338  0.1014  0.0849
 1239SOL    HW2 4954   0.505   2.359   2.249 -1.3944 -0.6644  0.6124
 1239SOL    HW3 4955   0.356   2.388   2.250 -1.1595  0.7063 -0.9860
 1239SOL    MW4 4956   0.437   2.406   2.222 -0.6563  0.0802  0.0132
 1240SOL     OW 4957   0.456   2.689   2.331 -0.0893 -0.4444  0.0797
 1240SOL    HW2 4958   0.457   2.677   2.426  1.6116  0.4120  0.1853
 1240SOL    HW3 4959   0.449   2.600   2.295 -2.3343 -0.6658  1.0075
 1240SOL    MW4 4960   0.455   2.675   2.339 -0.1611 -0.3606  0.2160
 1241SOL     OW 4961   0.664   2.829   2.240 -0.0886  0.0105  0.6499
 1241SOL    HW2 4962   0.737   2.797   2.292  0.3149  0.7658  0.5672
 1241SOL    HW3 4963   0.587   2.785   2.275  0.4914 -1.2980  0.2967
 1241SOL    MW4 4964   0.663   2.819   2.252  0.0412 -0.0625  0.5924
 1242SOL     OW 4965   0.642   3.068   2.387 -0.3788 -0.1696 -0.3180
 1242SOL    HW2 4966   0.568   3.120   2.354 -0.1663  0.0344 -0.4823
 1242SOL    HW3 4967   0.647   2.993   2.327  1.1812  1.1607 -1.9462
 1242SOL    MW4 4968   0.633   3.065   2.375 -0.1450  0.0328 -0.5545
 1243SOL     OW 4969   0.434   3.232   2.279 -0.1474 -0.0321 -0.3275
 1243SOL    HW2 4970   0.347   3.212   2.312  0.7981 -3.0759  0.4709
 1243SOL    HW3 4971   0.426   3.222   2.184 -0.0523 -3.1059 -0.0614
 1243SOL    MW4 4972   0.422   3.228   2.271 -0.0101 -0.8392 -0.1871
 1244SOL     OW 4973   0.431   3.475   2.390  0.0760 -0.0490  0.5861
 1244SOL    HW2 4974   0.508   3.522   2.357  2.2185 -3.1412  0.9073
 1244SOL    HW3 4975   0.431   3.393   2.341 -2.7906 -0.2940  0.9408
 1244SOL    MW4 4976   0.442   3.470   2.379 -0.0195 -0.4893  0.6753
 1245SOL     OW 4977   0.669   3.567   2.279  0.1035 -0.0287 -0.3671
 1245SOL    HW2 4978   0.681   3.660   2.293  0.9105 -0.0654 -0.7718
 1245SOL    HW3 4979   0.664   3.557   2.184 -0.0188 -0.3890 -0.3255
 1245SOL    MW4 4980   0.670   3.578   2.268  0.1938 -0.0811 -0.4150
 1246SOL     OW 4981   0.714   3.833   2.361 -0.1082 -0.1251  0.4459
 1246SOL    HW2 4982   0.727   3.850   2.455 -2.5350 -0.2813  0.8279
 1246SOL    HW3 4983   0.631   3.876   2.340  1.1551  1.2353 -2.0006
 1246SOL    MW4 4984   0.705   3.841   2.371 -0.2617  0.0338  0.1735
 1247SOL     OW 4985   0.479   3.989   2.316  0.2588  0.1722 -0.0298
 1247SOL    HW2 4986   0.392   3.955   2.336  0.9505 -1.4916  0.2577
 1247SOL    HW3 4987   0.483   3.991   2.221 -0.3970  1.1123 -0.0505
 1247SOL    MW4 4988   0.468   3.985   2.306  0.2635  0.0767  0.0054
 1248SOL     OW 4989   0.435   4.230   2.409 -0.0082 -0.0020 -0.2821
 1248SOL    HW2 4990   0.503   4.288   2.376  1.3177 -1.4119 -0.0999
 1248SOL    HW3 4991   0.460   4.143   2.376 -1.0093 -0.7422  0.8675
 1248SOL    MW4 4992   0.447   4.226   2.400  0.0347 -0.2857 -0.1064
 1249SOL     OW 4993   0.616   4.393   2.293  0.3234 -0.4183  0.2358
 1249SOL    HW2 4994   0.636   4.485   2.313  3.5140 -1.4011  1.8430
 1249SOL    HW3 4995   0.659   4.378   2.208 -0.8403 -0.2510 -0.3951
 1249SOL    MW4 4996   0.625   4.403   2.284  0.5908 -0.5259  0.3646
 1250SOL     OW 4997   1.126   4.589   2.366 -0.1671 -0.4927  0.2835
 1250SOL    HW2 4998   1.117   4.605   2.460  0.7632 -0.2335  0.3283
 1250SOL    HW3 4999   1.049   4.632   2.328 -0.2462 -0.0960  0.8766
 1250SOL    MW4 5000   1.115   4.597   2.373 -0.0548 -0.4062  0.3677
 1251SOL     OW 5001   0.896   0.063   2.280 -0.6140  0.0660  0.4474
 1251SOL    HW2 5002   0.904   0.155   2.306  1.8530 -0.0774  0.3025
 1251SOL    HW3 5003   0.874   0.067   2.187 -0.8265  0.5134  0.5126
 1251SOL    MW4 5004   0.894   0.076   2.271 -0.3165  0.1061  0.4369
 1252SOL     OW 5005   0.881   0.343   2.350  0.1149  0.2068 -0.1919
 1252SOL    HW2 5006   0.957   0.387   2.313 -0.6410  0.3078 -1.6667
 1252SOL    HW3 5007   0.806   0.392   2.317 -0.6045  0.2201  1.3899
 1252SOL    MW4 5008   0.881   0.355   2.341 -0.0797  0.2219 -0.1778
 1253SOL     OW 5009   1.110   0.484   2.274 -0.1395 -0.4200 -0.4381
 1253SOL    HW2 5010   1.179   0.431   2.314 -0.5228 -1.1506 -0.7338
 1253SOL    HW3 5011   1.127   0.477   2.180 -0.0714  0.1533 -0.4694
 1253SOL    MW4 5012   1.121   0.476   2.267 -0.1811 -0.4407 -0.4812
 1254SOL     OW 5013   1.147   0.748   2.346 -0.1841 -0.4179 -0.2795
 1254SOL    HW2 5014   1.058   0.784   2.338  0.1722  0.4682 -0.1960
 1254SOL    HW3 5015   1.136   0.655   2.325 -1.4867 -0.7270  1.6795
 1254SOL    MW4 5016   1.133   0.740   2.342 -0.3089 -0.3418 -0.0101
 1255SOL     OW 5017   0.905   0.856   2.301 -0.1629 -0.2187 -0.0685
 1255SOL    HW2 5018   0.895   0.939   2.348 -0.7616  0.5944 -1.5910
 1255SOL    HW3 5019   0.827   0.806   2.325  0.3236 -0.4471  1.0531
 1255SOL    MW4 5020   0.894   0.860   2.310 -0.1777 -0.1416 -0.1214
 1256SOL     OW 5021   0.891   1.136   2.409  0.0370 -0.4302 -0.0781
 1256SOL    HW2 5022   0.966   1.176   2.364 -0.1687 -1.1527 -1.0850
 1256SOL    HW3 5023   0.814   1.174   2.366 -0.1652 -2.0800 -1.2523
 1256SOL    MW4 5024   0.891   1.146   2.397 -0.0168 -0.7432 -0.3659
 1257SOL     OW 5025   1.104   1.265   2.284 -0.1478 -0.4162 -0.2989
 1257SOL    HW2 5026   1.188   1.227   2.308  0.3125  0.6826 -0.1500
 1257SOL    HW3 5027   1.111   1.282   2.190  0.0153  0.2097 -0.1763
 1257SOL    MW4 5028   1.116   1.262   2.274 -0.0655 -0.1886 -0.2631
 1258SOL     OW 5029   1.092   1.552   2.392 -0.3703 -0.4235  0.2584
 1258SOL    HW2 5030   1.021   1.589   2.339  0.2107  0.6940  0.2446
 1258SOL    HW3 5031   1.094   1.459   2.368 -0.9851 -0.2001 -0.6879
 1258SOL    MW4 5032   1.083   1.545   2.382 -0.3748 -0.2466  0.1317
 1259SOL     OW 5033   0.873   1.643   2.244  0.0371 -0.2052 -0.5524
 1259SOL    HW2 5034   0.862   1.733   2.276 -2.5434 -0.7183  0.1143
 1259SOL    HW3 5035   0.882   1.653   2.149  1.5468  0.8709 -0.3121
 1259SOL    MW4 5036   0.873   1.656   2.236 -0.1042 -0.1309 -0.4327
 1260SOL     OW 5037   0.881   1.909   2.350 -0.3701  0.1005 -0.6740
 1260SOL    HW2 5038   0.896   1.920   2.444  1.8701 -1.9921 -0.7458
 1260SOL    HW3 5039   0.957   1.948   2.308 -0.0959 -1.2825 -1.5087
 1260SOL    MW4 5040   0.893   1.916   2.357 -0.0384 -0.3581 -0.7936
 1261SOL     OW 5041   1.078   2.057   2.251 -0.2127  0.0292 -0.2899
 1261SOL    HW2 5042   1.162   2.028   2.286  0.5269  0.8433 -1.3325
 1261SOL    HW3 5043   1.089   2.054   2.156 -1.8008 -1.0679 -0.4531
 1261SOL    MW4 5044   1.090   2.053   2.243 -0.3247 -0.0081 -0.4490
 1262SOL     OW 5045   1.127   2.301   2.372  0.0949  0.2141  0.1774
 1262SOL    HW2 5046   1.202   2.332   2.322 -0.8827  1.0347 -0.8246
 1262SOL    HW3 5047   1.104   2.218   2.330  1.4954 -0.8969  1.5903
 1262SOL    MW4 5048   1.134   2.294   2.360  0.1507  0.1758  0.2316
 1263SOL     OW 5049   0.896   2.427   2.278 -0.0878  0.2049 -0.2036
 1263SOL    HW2 5050   0.977   2.400   2.320 -0.0362 -0.8548 -0.9862
 1263SOL    HW3 5051   0.914   2.422   2.185 -1.9156 -2.7295 -0.4457
 1263SOL    MW4 5052   0.909   2.423   2.271 -0.3221 -0.3221 -0.3388
 1264SOL     OW 5053   0.865   2.677   2.378 -0.1167 -0.7420 -0.2229
 1264SOL    HW2 5054   0.882   2.672   2.472 -1.1239 -1.8168 -0.0862
 1264SOL    HW3 5055   0.865   2.586   2.349 -1.1837 -0.5023 -1.0084
 1264SOL    MW4 5056   0.867   2.664   2.387 -0.3904 -0.8522 -0.3085
 1265SOL     OW 5057   1.107   2.810   2.254 -0.0111  0.2109  0.1044
 1265SOL    HW2 5058   1.184   2.759   2.280  1.0461  0.8032 -1.7253
 1265SOL    HW3 5059   1.033   2.760   2.288  1.2077  0.8603  4.0271
 1265SOL    MW4 5060   1.108   2.796   2.262  0.2892  0.3747  0.3805
 1266SOL     OW 5061   1.054   3.054   2.393 -0.6184  0.5133  0.2478
 1266SOL    HW2 5062   0.991   3.100   2.338 -0.4493 -1.0331 -1.3170
 1266SOL    HW3 5063   1.061   2.967   2.353 -1.1785 -0.9938  3.2657
 1266SOL    MW4 5064   1.047   3.048   2.380 -0.6700  0.1105  0.4395
 1267SOL     OW 5065   0.853   3.191   2.238  0.0887 -0.2680 -0.5753
 1267SOL    HW2 5066   0.866   3.272   2.287  1.0103 -1.0023  0.4012
 1267SOL    HW3 5067   0.783   3.145   2.285 -0.4405 -0.0570 -1.1342
 1267SOL    MW4 5068   0.845   3.196   2.250  0.1405 -0.3371 -0.5202
 1268SOL     OW 5069   0.886   3.427   2.377  0.2792  0.4622 -0.0985
 1268SOL    HW2 5070   0.885   3.437   2.472 -1.3892 -0.6448  0.0189
 1268SOL    HW3 5071   0.804   3.467   2.348  0.2716 -0.1812 -0.9616
 1268SOL    MW4 5072   0.875   3.434   2.386  0.0581  0.2313 -0.1969
 1269SOL     OW 5073   1.086   3.595   2.292  0.2742 -0.0524  0.1442
 1269SOL    HW2 5074   1.167   3.561   2.331  0.4490 -0.6454 -0.7255
 1269SOL    HW3 5075   1.017   3.539   2.327  0.4008 -0.4182 -0.1894
 1269SOL    MW4 5076   1.088   3.583   2.302  0.3140 -0.1789 -0.0146
 1270SOL     OW 5077   1.115   3.870   2.389  0.6055  0.0182  0.2473
 1270SOL    HW2 5078   1.201   3.891   2.354  0.5461 -0.9431 -0.5026
 1270SOL    HW3 5079   1.091   3.787   2.347 -0.9952  0.6364 -0.1273
 1270SOL    MW4 5080   1.123   3.862   2.379  0.3865 -0.0271  0.0989
 1271SOL     OW 5081   0.904   4.025   2.286 -0.0854  0.0156  0.1760
 1271SOL    HW2 5082   0.982   4.004   2.337  1.8156 -1.9979 -3.3606
 1271SOL    HW3 5083   0.850   3.946   2.291 -0.2495  0.0970 -0.3117
 1271SOL    MW4 5084   0.907   4.012   2.294  0.1438 -0.2393 -0.3549
 1272SOL     OW 5085   0.853   4.260   2.412  0.1233 -0.6412 -0.2527
 1272SOL    HW2 5086   0.863   4.177   2.366 -0.3997 -0.3064 -0.9863
 1272SOL    HW3 5087   0.778   4.302   2.369  1.0477  0.6817 -0.6027
 1272SOL    MW4 5088   0.844   4.254   2.400  0.1762 -0.4225 -0.3957
 1273SOL     OW 5089   1.055   4.358   2.245  0.5375 -0.0367  0.1344
 1273SOL    HW2 5090   0.999   4.323   2.314 -0.6933 -0.7892 -1.1962
 1273SOL    HW3 5091   1.097   4.434   2.284  0.9727 -1.2718  2.1418
 1273SOL    MW4 5092   1.053   4.363   2.259  0.4325 -0.2989  0.2237
 1274SOL     OW 5093   1.542   4.590   2.373 -0.0833  0.5272  0.4380
 1274SOL    HW2 5094   1.620   4.639   2.349 -0.0235 -0.1397 -0.7828
 1274SOL    HW3 5095   1.470   4.642   2.337 -0.0502 -0.0193 -0.4324
 1274SOL    MW4 5096   1.542   4.604   2.365 -0.0711  0.3671  0.1621
 1275SOL     OW 5097   1.336   0.072   2.243  0.3353  0.1339  0.0124
 1275SOL    HW2 5098   1.331   0.167   2.253 -1.9377  0.2041 -1.3370
 1275SOL    HW3 5099   1.264   0.039   2.297  0.5392 -0.7553 -0.2590
 1275SOL    MW4 5100   1.326   0.080   2.252  0.0623  0.0259 -0.2015
 1276SOL     OW 5101   1.321   0.341   2.369  0.4206  0.2710  0.2346
 1276SOL    HW2 5102   1.326   0.322   2.463  0.6456  1.2432  0.4298
 1276SOL    HW3 5103   1.377   0.418   2.358 -0.5407  0.8642 -0.5084
 1276SOL    MW4 5104   1.329   0.349   2.380  0.3234  0.4775  0.1623
 1277SOL     OW 5105   1.536   0.506   2.246  0.2185 -0.2558  0.0377
 1277SOL    HW2 5106   1.606   0.448   2.275  1.6145  1.2843 -0.2039
 1277SOL    HW3 5107   1.546   0.511   2.151 -1.6164 -1.7781 -0.2767
 1277SOL    MW4 5108   1.547   0.499   2.238  0.1606 -0.2535 -0.0357
 1278SOL     OW 5109   1.589   0.731   2.367 -0.0503 -0.0904  0.3735
 1278SOL    HW2 5110   1.672   0.753   2.326  0.8452 -1.7175  1.2790
 1278SOL    HW3 5111   1.564   0.647   2.328 -1.3716  0.4844 -0.0457
 1278SOL    MW4 5112   1.596   0.722   2.357 -0.1065 -0.2292  0.4376
 1279SOL     OW 5113   1.364   0.851   2.229 -0.3205  0.0077  0.5361
 1279SOL    HW2 5114   1.427   0.801   2.281 -0.4300  0.2228  0.8813
 1279SOL    HW3 5115   1.279   0.824   2.263 -0.3742  0.5591  0.8473
 1279SOL    MW4 5116   1.361   0.841   2.240 -0.3420  0.1089  0.6227
 1280SOL     OW 5117   1.335   1.119   2.334 -0.1056  0.1510 -0.1949
 1280SOL    HW2 5118   1.348   1.109   2.428  1.0535 -0.1543 -0.3846
 1280SOL    HW3 5119   1.349   1.031   2.299  1.6181  0.6860 -0.8908
 1280SOL    MW4 5120   1.339   1.106   2.342  0.2748  0.1813 -0.3118
 1281SOL     OW 5121   1.569   1.248   2.295  0.0188  0.5337  0.1785
 1281SOL    HW2 5122   1.484   1.206   2.311 -0.9778  2.2095 -0.5890
 1281SOL    HW3 5123   1.574   1.255   2.200  0.4621  1.5614  0.2792
 1281SOL    MW4 5124   1.558   1.243   2.284 -0.0542  0.8904  0.0905
 1282SOL     OW 5125   1.511   1.511   2.355 -0.6015 -0.1347 -0.5540
 1282SOL    HW2 5126   1.591   1.556   2.328  0.2636 -0.2716  1.6738
 1282SOL    HW3 5127   1.528   1.419   2.335 -0.4930 -0.0616 -0.7962
 1282SOL    MW4 5128   1.524   1.505   2.349 -0.4731 -0.1431 -0.2920
 1283SOL     OW 5129   1.310   1.668   2.245 -0.0302  0.0390  0.1550
 1283SOL    HW2 5130   1.383   1.616   2.279  1.6049  1.7276 -0.6871
 1283SOL    HW3 5131   1.236   1.645   2.302  1.2314 -1.4029  1.2703
 1283SOL    MW4 5132   1.310   1.658   2.257  0.3520  0.0716  0.1911
 1284SOL     OW 5133   1.302   1.937   2.350 -0.7298  0.1326  0.0023
 1284SOL    HW2 5134   1.386   1.973   2.320 -0.5194  0.1890  0.6435
 1284SOL    HW3 5135   1.300   1.849   2.312 -0.6222  0.3217 -0.4499
 1284SOL    MW4 5136   1.313   1.930   2.341 -0.6878  0.1650  0.0273
 1285SOL     OW 5137   1.554   2.038   2.266 -0.1632 -0.6973  0.0586
 1285SOL    HW2 5138   1.632   1.991   2.296 -0.4226 -0.8544  0.4992
 1285SOL    HW3 5139   1.552   2.025   2.171  1.5219  1.1028 -0.2499
 1285SOL    MW4 5140   1.564   2.030   2.257  0.0249 -0.4805  0.0760
 1286SOL     OW 5141   1.592   2.307   2.351  0.0008  0.0205  0.5143
 1286SOL    HW2 5142   1.604   2.313   2.446 -0.8929 -0.4141  0.6548
 1286SOL    HW3 5143   1.570   2.216   2.336 -0.0668  0.1399 -0.0937
 1286SOL    MW4 5144   1.591   2.296   2.362 -0.1260 -0.0211  0.4526
 1287SOL     OW 5145   1.366   2.398   2.259  0.3444 -0.1564 -0.2949
 1287SOL    HW2 5146   1.450   2.358   2.280  0.0032 -1.2404 -0.9282
 1287SOL    HW3 5147   1.367   2.407   2.164  0.0483  0.5193 -0.2345
 1287SOL    MW4 5148   1.377   2.394   2.249  0.2603 -0.2102 -0.3705
 1288SOL     OW 5149   1.331   2.676   2.350  0.1250  0.0009  0.5957
 1288SOL    HW2 5150   1.410   2.728   2.333 -1.7207  2.4390 -0.9020
 1288SOL    HW3 5151   1.345   2.594   2.304  0.9250  1.2427 -1.4272
 1288SOL    MW4 5152   1.343   2.672   2.342 -0.0129  0.4864  0.1312
 1289SOL     OW 5153   1.570   2.838   2.310 -0.3579  0.0262 -0.4820
 1289SOL    HW2 5154   1.548   2.931   2.305  3.0992  0.9597  0.1928
 1289SOL    HW3 5155   1.603   2.817   2.222  0.4384 -0.1259 -0.1472
 1289SOL    MW4 5156   1.571   2.848   2.297  0.2033  0.1293 -0.3488
 1290SOL     OW 5157   1.538   3.125   2.375  0.6506 -0.3215  0.3079
 1290SOL    HW2 5158   1.544   3.098   2.467  0.7925  0.9872  0.6967
 1290SOL    HW3 5159   1.453   3.169   2.369  0.6924 -0.3038 -0.1705
 1290SOL    MW4 5160   1.528   3.127   2.387  0.6748 -0.1465  0.2960
 1291SOL     OW 5161   1.268   3.242   2.319 -0.6617 -0.3411 -0.0971
 1291SOL    HW2 5162   1.184   3.197   2.333 -1.2480  0.6728 -0.2636
 1291SOL    HW3 5163   1.281   3.238   2.224 -0.5648 -0.4289 -0.0796
 1291SOL    MW4 5164   1.258   3.235   2.308 -0.7263 -0.2189 -0.1168
 1292SOL     OW 5165   1.318   3.496   2.400 -0.6840 -0.3494  0.1978
 1292SOL    HW2 5166   1.328   3.498   2.495 -2.5727  0.5105  0.4100
 1292SOL    HW3 5167   1.299   3.404   2.380 -0.4757 -0.4987  0.6851
 1292SOL    MW4 5168   1.317   3.484   2.410 -0.9057 -0.2556  0.2901
 1293SOL     OW 5169   1.571   3.594   2.253  0.1236 -0.3594 -0.0663
 1293SOL    HW2 5170   1.586   3.676   2.301 -0.0371  0.5073 -1.4852
 1293SOL    HW3 5171   1.495   3.555   2.296 -0.3703  0.6932  0.0380
 1293SOL    MW4 5172   1.563   3.600   2.265  0.0372 -0.1062 -0.2397
 1294SOL     OW 5173   1.622   3.847   2.380 -0.1412  0.4380  0.1773
 1294SOL    HW2 5174   1.632   3.838   2.475  1.2466 -1.6621 -0.1275
 1294SOL    HW3 5175   1.696   3.903   2.354 -0.2079  0.5690  0.2673
 1294SOL    MW4 5176   1.633   3.853   2.389  0.0331  0.1782  0.1489
 1295SOL     OW 5177   1.360   3.935   2.277 -0.7231  0.0572 -0.3547
 1295SOL    HW2 5178   1.443   3.897   2.305 -0.9214  0.5626  0.9394
 1295SOL    HW3 5179   1.369   3.945   2.182  1.4574  1.9390  0.0143
 1295SOL    MW4 5180   1.372   3.931   2.268 -0.4616  0.3721 -0.1353
 1296SOL     OW 5181   1.322   4.202   2.381  0.5797 -0.6344  0.2548
 1296SOL    HW2 5182   1.348   4.119   2.341 -1.1070 -0.8826 -0.3652
 1296SOL    HW3 5183   1.248   4.232   2.328  1.3013  1.3773  0.3338
 1296SOL    MW4 5184   1.316   4.195   2.368  0.4524 -0.4017  0.1834
 1297SOL     OW 5185   1.535   4.341   2.282 -0.7495  0.5359 -0.3167
 1297SOL    HW2 5186   1.458   4.289   2.302  0.3834 -0.3668  1.8929
 1297SOL    HW3 5187   1.521   4.424   2.329  0.9058 -0.7492  2.6077
 1297SOL    MW4 5188   1.523   4.345   2.291 -0.3817  0.2472  0.3607
 1298SOL     OW 5189   2.004   0.006   2.374 -0.0691 -0.4280 -0.3271
 1298SOL    HW2 5190   2.069   0.055   2.324 -0.1736  0.2440  0.2014
 1298SOL    HW3 5191   2.032  -0.086   2.365  1.9993 -0.0048  1.4194
 1298SOL    MW4 5192   2.016   0.000   2.366  0.1900 -0.2835 -0.0270
 1299SOL     OW 5193   1.759   0.071   2.249 -0.0491  0.3815 -0.2203
 1299SOL    HW2 5194   1.728   0.157   2.277 -2.9324 -1.0549  1.1788
 1299SOL    HW3 5195   1.851   0.069   2.276  0.0995  3.0331 -0.3761
 1299SOL    MW4 5196   1.767   0.082   2.256 -0.4099  0.5419 -0.0563
 1300SOL     OW 5197   1.717   0.328   2.342 -0.2948  0.2674  0.1870
 1300SOL    HW2 5198   1.723   0.330   2.437 -0.0928 -1.4176  0.2243
 1300SOL    HW3 5199   1.803   0.358   2.312  0.1857 -0.7106  0.5566
 1300SOL    MW4 5200   1.729   0.332   2.350 -0.2047 -0.0840  0.2407
 1301SOL     OW 5201   1.975   0.459   2.284 -0.0385 -0.8418 -0.1250
 1301SOL    HW2 5202   1.962   0.550   2.309  1.6956 -1.1952  2.2160
 1301SOL    HW3 5203   1.994   0.462   2.190  0.6554  1.2622  0.0647
 1301SOL    MW4 5204   1.976   0.471   2.275  0.2819 -0.6108  0.2089
 1302SOL     OW 5205   2.016   0.742   2.419  0.4499 -0.0052  0.0855
 1302SOL    HW2 5206   2.085   0.783   2.367  0.9726 -0.5431  0.3502
 1302SOL    HW3 5207   1.934   0.778   2.383  0.8218 -0.0686 -0.8350
 1302SOL    MW4 5208   2.014   0.752   2.407  0.5679 -0.0845 -0.0010
 1303SOL     OW 5209   1.812   0.855   2.264 -0.4097 -0.3985 -0.5734
 1303SOL    HW2 5210   1.815   0.939   2.310  3.2183 -1.6626  1.7409
 1303SOL    HW3 5211   1.806   0.879   2.171  0.7524  2.4661  0.0315
 1303SOL    MW4 5212   1.812   0.869   2.258  0.2223 -0.1874 -0.1883
 1304SOL     OW 5213   1.803   1.112   2.351 -0.1497 -0.2671  0.2679
 1304SOL    HW2 5214   1.871   1.151   2.295  0.0857  0.5264  1.0979
 1304SOL    HW3 5215   1.722   1.157   2.325 -0.3286 -1.0356 -0.5456
 1304SOL    MW4 5216   1.801   1.123   2.340 -0.1422 -0.2638  0.2701
 1305SOL     OW 5217   2.010   1.258   2.238  0.6131  0.7504 -0.6394
 1305SOL    HW2 5218   1.987   1.345   2.269 -1.2195 -0.0990  0.4827
 1305SOL    HW3 5219   2.031   1.270   2.146  0.6644  2.4141 -0.4268
 1305SOL    MW4 5220   2.010   1.271   2.230  0.3781  0.8578 -0.4633
 1306SOL     OW 5221   2.015   1.534   2.362 -0.4676 -0.1379 -0.0715
 1306SOL    HW2 5222   2.026   1.543   2.457 -1.5038  0.5890 -0.0001
 1306SOL    HW3 5223   1.938   1.588   2.342  0.3959  0.6111 -1.4864
 1306SOL    MW4 5224   2.006   1.543   2.372 -0.4904  0.0568 -0.2488
 1307SOL     OW 5225   1.795   1.651   2.266  0.0491 -0.4285  0.2479
 1307SOL    HW2 5226   1.786   1.736   2.309 -0.3589 -1.1736  1.6788
 1307SOL    HW3 5227   1.805   1.671   2.173 -1.4512  1.1203  0.4111
 1307SOL    MW4 5228   1.795   1.665   2.260 -0.2027 -0.3224  0.4582
 1308SOL     OW 5229   1.792   1.926   2.379  0.5038 -0.2277 -0.2236
 1308SOL    HW2 5230   1.795   1.900   2.471  1.6880 -2.6134 -0.8868
 1308SOL    HW3 5231   1.872   1.976   2.366 -0.6220  1.8252  0.4808
 1308SOL    MW4 5232   1.803   1.929   2.390  0.5115 -0.2716 -0.2182
 1309SOL     OW 5233   2.033   2.011   2.283 -0.4852 -0.1818 -0.3543
 1309SOL    HW2 5234   2.120   1.990   2.317 -0.7488  0.6992  0.8797
 1309SOL    HW3 5235   2.044   2.012   2.188  0.8253 -0.1815 -0.2111
 1309SOL    MW4 5236   2.046   2.008   2.275 -0.3471 -0.0655 -0.1726
 1310SOL     OW 5237   2.042   2.312   2.383 -0.2635  0.1513 -0.0272
 1310SOL    HW2 5238   2.105   2.361   2.330  0.4089 -0.0291  0.5900
 1310SOL    HW3 5239   2.059   2.220   2.363 -0.3866  0.1069  0.0713
 1310SOL    MW4 5240   2.053   2.306   2.373 -0.1910  0.1216  0.0673
 1311SOL     OW 5241   1.808   2.456   2.286 -0.1442  0.5006  0.3043
 1311SOL    HW2 5242   1.884   2.402   2.309 -0.4075  0.4118  0.9619
 1311SOL    HW3 5243   1.734   2.412   2.328 -0.2898  1.6425  1.2454
 1311SOL    MW4 5244   1.808   2.443   2.294 -0.1981  0.6395  0.5152
 1312SOL     OW 5245   1.806   2.722   2.382  0.4120  0.3893  0.7788
 1312SOL    HW2 5246   1.813   2.642   2.330  1.2392 -1.7268  3.9892
 1312SOL    HW3 5247   1.719   2.756   2.361  0.1589 -1.1910 -0.8708
 1312SOL    MW4 5248   1.795   2.716   2.373  0.4878 -0.0984  0.9847
 1313SOL     OW 5249   2.065   2.826   2.314  0.1568  0.4525  0.6932
 1313SOL    HW2 5250   2.130   2.773   2.359  0.6682  0.5806  0.1204
 1313SOL    HW3 5251   1.980   2.790   2.341  0.4441  0.7354  2.0049
 1313SOL    MW4 5252   2.062   2.815   2.323  0.2622  0.5067  0.7907
 1314SOL     OW 5253   1.999   3.085   2.349 -0.2588  0.4410 -0.4411
 1314SOL    HW2 5254   2.075   3.135   2.320 -0.0297  0.5340  0.2910
 1314SOL    HW3 5255   2.024   2.993   2.338 -0.6048  0.4764 -1.5983
 1314SOL    MW4 5256   2.012   3.079   2.344 -0.2742  0.4580 -0.4972
 1315SOL     OW 5257   1.777   3.235   2.269 -0.3878  0.0450  0.0485
 1315SOL    HW2 5258   1.846   3.178   2.301 -0.6969 -0.5157 -0.2712
 1315SOL    HW3 5259   1.696   3.194   2.299 -0.5804  0.7190  0.4569
 1315SOL    MW4 5260   1.775   3.223   2.277 -0.4540  0.0599  0.0602
 1316SOL     OW 5261   1.829   3.498   2.351 -0.3018  1.0745 -0.1641
 1316SOL    HW2 5262   1.832   3.404   2.332  0.1056  0.9971  0.2852
 1316SOL    HW3 5263   1.743   3.526   2.319  0.3471  0.9376 -2.1215
 1316SOL    MW4 5264   1.818   3.489   2.344 -0.1625  1.0462 -0.3631
 1317SOL     OW 5265   2.066   3.612   2.294 -0.5762  0.0758  0.0852
 1317SOL    HW2 5266   1.995   3.559   2.331 -0.9074 -0.0483 -0.7167
 1317SOL    HW3 5267   2.043   3.621   2.201  1.1495 -1.1063 -0.4783
 1317SOL    MW4 5268   2.054   3.606   2.286 -0.3922 -0.0966 -0.0949
 1318SOL     OW 5269   2.075   3.875   2.361 -0.7103 -0.4533  0.2267
 1318SOL    HW2 5270   2.079   3.890   2.455 -0.6035  0.9071  0.0233
 1318SOL    HW3 5271   2.046   3.784   2.352 -1.1538 -0.4581  1.5663
 1318SOL    MW4 5272   2.072   3.865   2.372 -0.7547 -0.2745  0.3766
 1319SOL     OW 5273   1.838   4.002   2.275  0.0751  0.0178 -0.3106
 1319SOL    HW2 5274   1.919   3.968   2.313  0.3629  1.4978  0.4170
 1319SOL    HW3 5275   1.846   3.982   2.181  0.1880 -1.9679  0.0927
 1319SOL    MW4 5276   1.850   3.995   2.268  0.1280 -0.0489 -0.1614
 1320SOL     OW 5277   1.811   4.269   2.373  0.2951 -0.4555  0.3793
 1320SOL    HW2 5278   1.828   4.180   2.340  0.9530 -0.1760 -0.0374
 1320SOL    HW3 5279   1.721   4.287   2.347  0.4684 -0.6423 -0.3557
 1320SOL    MW4 5280   1.802   4.259   2.365  0.4048 -0.4432  0.2273
 1321SOL     OW 5281   2.052   4.392   2.312 -0.1277  0.5108  0.1253
 1321SOL    HW2 5282   1.963   4.370   2.338 -0.9070  2.1110 -1.1014
 1321SOL    HW3 5283   2.055   4.374   2.218  0.4958  1.4896 -0.0524
 1321SOL    MW4 5284   2.041   4.387   2.303 -0.1483  0.8511 -0.0600
 1322SOL     OW 5285   2.416   4.657   2.369  0.1748 -0.2355  0.7319
 1322SOL    HW2 5286   2.501   4.684   2.333 -0.1656 -0.0162  0.0768
 1322SOL    HW3 5287   2.397   4.574   2.325 -0.4478  0.2497  0.0596
 1322SOL    MW4 5288   2.425   4.650   2.358  0.0477 -0.1425  0.5568
 1323SOL     OW 5289   2.199   0.147   2.235 -0.5543  0.3570 -0.0614
 1323SOL    HW2 5290   2.182   0.227   2.285 -0.8822  0.7184 -0.7363
 1323SOL    HW3 5291   2.276   0.109   2.276 -0.9610  0.5201  0.8672
 1323SOL    MW4 5292   2.207   0.153   2.247 -0.6512  0.4262 -0.0280
 1324SOL     OW 5293   2.180   0.350   2.407  0.0160 -0.0486  0.1001
 1324SOL    HW2 5294   2.260   0.391   2.375  0.8014 -1.8395 -0.2838
 1324SOL    HW3 5295   2.109   0.398   2.363  0.9933 -0.8014 -2.3695
 1324SOL    MW4 5296   2.181   0.362   2.397  0.2486 -0.3842 -0.2764
 1325SOL     OW 5297   2.402   0.468   2.300 -0.2889  0.0293 -0.3316
 1325SOL    HW2 5298   2.494   0.455   2.324 -0.2408  1.1668  0.1641
 1325SOL    HW3 5299   2.403   0.473   2.204 -0.1090 -1.8812 -0.4345
 1325SOL    MW4 5300   2.415   0.467   2.290 -0.2588 -0.0727 -0.2798
 1326SOL     OW 5301   2.438   0.736   2.391  0.2954  0.1268  0.2051
 1326SOL    HW2 5302   2.518   0.753   2.342  0.2003 -0.8936 -0.3113
 1326SOL    HW3 5303   2.407   0.651   2.359 -0.8429  0.3809  0.6005
 1326SOL    MW4 5304   2.444   0.727   2.381  0.1327  0.0257  0.1891
 1327SOL     OW 5305   2.231   0.875   2.261 -0.0956 -0.8126 -0.2444
 1327SOL    HW2 5306   2.227   0.968   2.285 -0.4820 -0.7231 -0.6388
 1327SOL    HW3 5307   2.296   0.838   2.320  0.6077 -0.1407 -0.5760
 1327SOL    MW4 5308   2.239   0.883   2.272 -0.0538 -0.7122 -0.3402
 1328SOL     OW 5309   2.234   1.132   2.367 -0.2387  0.3011  0.3798
 1328SOL    HW2 5310   2.307   1.183   2.333 -0.9561  0.9002 -0.2815
 1328SOL    HW3 5311   2.156   1.173   2.330 -0.8718 -0.7943  0.4687
 1328SOL    MW4 5312   2.233   1.144   2.358 -0.4169  0.2356  0.3043
 1329SOL     OW 5313   2.452   1.272   2.266  0.5516 -0.2071 -0.2628
 1329SOL    HW2 5314   2.532   1.228   2.296  0.6892  0.1536 -0.1000
 1329SOL    HW3 5315   2.468   1.365   2.282  0.0787 -0.1380 -0.1847
 1329SOL    MW4 5316   2.465   1.278   2.272  0.5074 -0.1504 -0.2310
 1330SOL     OW 5317   2.469   1.539   2.359 -0.4025 -0.1725 -0.0729
 1330SOL    HW2 5318   2.481   1.549   2.453  2.1244 -0.7535 -0.2964
 1330SOL    HW3 5319   2.544   1.584   2.320 -2.0276  1.0677 -1.8638
 1330SOL    MW4 5320   2.480   1.546   2.366 -0.2835 -0.0855 -0.3387
 1331SOL     OW 5321   2.249   1.683   2.279 -0.2450 -0.5160 -0.1057
 1331SOL    HW2 5322   2.321   1.634   2.318 -0.6217 -1.0132 -0.0209
 1331SOL    HW3 5323   2.170   1.633   2.304 -0.7871  1.0371  1.3759
 1331SOL    MW4 5324   2.248   1.670   2.288 -0.3662 -0.3767  0.1010
 1332SOL     OW 5325   2.296   1.930   2.394  0.1868 -0.2954 -0.7859
 1332SOL    HW2 5326   2.358   1.981   2.342 -0.7630  1.1691 -0.4839
 1332SOL    HW3 5327   2.284   1.849   2.344  1.8538 -0.3388 -1.1522
 1332SOL    MW4 5328   2.303   1.926   2.381  0.2814 -0.1079 -0.7944
 1333SOL     OW 5329   2.483   2.083   2.251 -0.0257  0.5274 -0.2778
 1333SOL    HW2 5330   2.558   2.026   2.267 -1.0685 -0.7643  0.1305
 1333SOL    HW3 5331   2.481   2.093   2.156 -0.3409 -0.8600 -0.4386
 1333SOL    MW4 5332   2.493   2.076   2.241 -0.2049  0.1739 -0.2452
 1334SOL     OW 5333   2.502   2.310   2.384  0.0228 -0.4587  0.5538
 1334SOL    HW2 5334   2.581   2.351   2.347  0.0074  0.5572  1.6351
 1334SOL    HW3 5335   2.499   2.223   2.343  2.6241 -1.1720  1.7461
 1334SOL    MW4 5336   2.512   2.304   2.373  0.3640 -0.4188  0.8537
 1335SOL     OW 5337   2.271   2.441   2.295  0.2010 -0.3013 -0.0447
 1335SOL    HW2 5338   2.275   2.517   2.353  0.9110 -2.0875  2.3245
 1335SOL    HW3 5339   2.342   2.384   2.325 -1.2501 -2.5595 -0.7729
 1335SOL    MW4 5340   2.281   2.444   2.307  0.1032 -0.8349  0.1718
 1336SOL     OW 5341   2.271   2.689   2.424 -0.0644  0.0782  0.4903
 1336SOL    HW2 5342   2.266   2.714   2.516 -1.7105 -0.0164  0.4325
 1336SOL    HW3 5343   2.349   2.734   2.391  0.3375  0.3773  1.8435
 1336SOL    MW4 5344   2.281   2.698   2.431 -0.2285  0.1052  0.6612
 1337SOL     OW 5345   2.482   2.811   2.307  0.1193  0.7337 -0.0230
 1337SOL    HW2 5346   2.559   2.756   2.323 -0.1638  0.5649  0.7617
 1337SOL    HW3 5347   2.483   2.825   2.212  0.6770  0.0833 -0.1218
 1337SOL    MW4 5348   2.493   2.806   2.297  0.1556  0.6256  0.0675
 1338SOL     OW 5349   2.472   3.103   2.322  0.3951 -0.2916 -0.0157
 1338SOL    HW2 5350   2.555   3.145   2.300  0.4885 -0.7872 -0.6504
 1338SOL    HW3 5351   2.491   3.009   2.314 -0.7500 -0.3826 -2.1866
 1338SOL    MW4 5352   2.486   3.096   2.318  0.2563 -0.3690 -0.3859
 1339SOL     OW 5353   2.252   3.231   2.293 -0.2681 -0.1978 -0.3749
 1339SOL    HW2 5354   2.269   3.316   2.333 -0.1449  0.4159 -1.7089
 1339SOL    HW3 5355   2.337   3.187   2.291 -0.3539 -0.4102  0.4248
 1339SOL    MW4 5356   2.266   3.236   2.298 -0.2632 -0.1449 -0.4454
 1340SOL     OW 5357   2.306   3.493   2.385 -0.3638  0.3530 -0.0497
 1340SOL    HW2 5358   2.281   3.504   2.476 -2.1014  1.3857 -0.6277
 1340SOL    HW3 5359   2.246   3.549   2.336  1.3283  0.7826 -1.7326
 1340SOL    MW4 5360   2.295   3.502   2.390 -0.3698  0.5459 -0.3480
 1341SOL     OW 5361   2.535   3.621   2.295  0.0305  0.1275 -0.4418
 1341SOL    HW2 5362   2.535   3.699   2.350 -0.2977 -0.1061 -0.1078
 1341SOL    HW3 5363   2.457   3.573   2.321  1.6532 -1.6683  1.3071
 1341SOL    MW4 5364   2.525   3.625   2.306  0.2013 -0.1402 -0.1670
 1342SOL     OW 5365   2.534   3.889   2.386  0.0481 -0.0718 -0.1648
 1342SOL    HW2 5366   2.498   3.886   2.474 -0.0051 -1.0491 -0.2149
 1342SOL    HW3 5367   2.463   3.923   2.332  0.1010  0.5847  0.1714
 1342SOL    MW4 5368   2.520   3.893   2.390  0.0481 -0.1141 -0.1271
 1343SOL     OW 5369   2.311   3.977   2.228 -0.0060  0.4029 -0.6331
 1343SOL    HW2 5370   2.306   4.062   2.272  0.8450 -0.3730  1.0182
 1343SOL    HW3 5371   2.236   3.928   2.263  0.7185 -0.2423  0.0540
 1343SOL    MW4 5372   2.300   3.982   2.239  0.2019  0.2154 -0.3246
 1344SOL     OW 5373   2.221   4.196   2.382  0.2453 -0.2050  0.0976
 1344SOL    HW2 5374   2.222   4.199   2.478  0.2536 -0.4025  0.1044
 1344SOL    HW3 5375   2.154   4.260   2.356  0.2133 -0.1822  0.2369
 1344SOL    MW4 5376   2.212   4.205   2.391  0.2422 -0.2281  0.1169
 1345SOL     OW 5377   2.415   4.393   2.286 -0.0095 -0.0693  0.1186
 1345SOL    HW2 5378   2.496   4.354   2.317  0.1201  0.7545  0.8415
 1345SOL    HW3 5379   2.346   4.350   2.336  0.2091  1.3765  1.7214
 1345SOL    MW4 5380   2.417   4.382   2.296  0.0365  0.2302  0.4255
 1346SOL     OW 5381   2.909   4.647   2.371 -0.2749 -0.4469 -0.0195
 1346SOL    HW2 5382   2.994   4.684   2.346 -0.0752  0.3482  1.7485
 1346SOL    HW3 5383   2.909   4.559   2.332  0.5298  0.2536 -1.6696
 1346SOL    MW4 5384   2.920   4.640   2.363 -0.1424 -0.2496 -0.0039
 1347SOL     OW 5385   2.674   0.100   2.280  0.5110 -0.3251 -0.1400
 1347SOL    HW2 5386   2.677   0.188   2.317  0.2871  0.0664 -1.0371
 1347SOL    HW3 5387   2.737   0.050   2.333  0.6266  0.3654  0.3847
 1347SOL    MW4 5388   2.683   0.105   2.292  0.4967 -0.1823 -0.1891
 1348SOL     OW 5389   2.671   0.378   2.386 -0.1824 -0.2831  0.0652
 1348SOL    HW2 5390   2.679   0.396   2.480 -2.7981 -0.1295  0.3055
 1348SOL    HW3 5391   2.751   0.413   2.348  1.1698 -0.8307  2.3010
 1348SOL    MW4 5392   2.682   0.385   2.394 -0.3491 -0.3351  0.3919
 1349SOL     OW 5393   2.915   0.470   2.269  0.0933  0.4105 -0.1997
 1349SOL    HW2 5394   2.920   0.564   2.287  2.0101  0.0044  1.6434
 1349SOL    HW3 5395   2.943   0.462   2.178  1.1585  1.5290  0.0126
 1349SOL    MW4 5396   2.920   0.481   2.259  0.4867  0.5045  0.0715
 1350SOL     OW 5397   2.936   0.734   2.338  0.0701 -0.0417  0.2741
 1350SOL    HW2 5398   2.935   0.739   2.434 -0.2847 -0.0834  0.2738
 1350SOL    HW3 5399   2.848   0.760   2.312  1.3076  3.9250 -0.2758
 1350SOL    MW4 5400   2.924   0.738   2.347  0.1866  0.4762  0.2015
 1351SOL     OW 5401   2.689   0.829   2.290  0.0883  0.3404  0.3641
 1351SOL    HW2 5402   2.685   0.916   2.329 -0.3305  0.8500 -0.7919
 1351SOL    HW3 5403   2.691   0.845   2.195  2.0908 -0.8289  0.1646
 1351SOL    MW4 5404   2.689   0.843   2.282  0.2973  0.2534  0.1853
 1352SOL     OW 5405   2.681   1.143   2.335 -0.6335  0.0803  0.0044
 1352SOL    HW2 5406   2.674   1.138   2.430 -0.0239 -0.4896  0.0265
 1352SOL    HW3 5407   2.766   1.184   2.319  0.2589 -1.8367 -0.3013
 1352SOL    MW4 5408   2.691   1.147   2.345 -0.4354 -0.2479 -0.0330
 1353SOL     OW 5409   2.895   1.286   2.242 -0.1404  0.1271  0.0072
 1353SOL    HW2 5410   2.971   1.245   2.283 -1.6123 -2.4426  0.2989
 1353SOL    HW3 5411   2.917   1.291   2.150  0.7045  0.1342  0.2082
 1353SOL    MW4 5412   2.908   1.282   2.236 -0.2232 -0.2110  0.0722
 1354SOL     OW 5413   2.941   1.563   2.350  0.7189  0.0105 -0.0249
 1354SOL    HW2 5414   2.946   1.555   2.445 -0.5308  3.8672  0.4463
 1354SOL    HW3 5415   2.912   1.477   2.320 -1.4976 -0.4956  3.2996
 1354SOL    MW4 5416   2.938   1.550   2.358  0.2615  0.4526  0.4759
 1355SOL     OW 5417   2.700   1.690   2.236 -0.1694  0.4814  0.1019
 1355SOL    HW2 5418   2.773   1.646   2.279 -0.7577  1.0735  1.7334
 1355SOL    HW3 5419   2.710   1.668   2.143 -0.1327 -2.6280  0.7900
 1355SOL    MW4 5420   2.711   1.681   2.229 -0.2422  0.1493  0.4080
 1356SOL     OW 5421   2.732   1.968   2.332  0.2934 -0.0555 -0.2958
 1356SOL    HW2 5422   2.714   1.965   2.426  2.2301 -0.8684  0.0574
 1356SOL    HW3 5423   2.725   1.877   2.303  1.7321 -0.1059 -0.5308
 1356SOL    MW4 5424   2.729   1.956   2.341  0.7387 -0.1694 -0.2802
 1357SOL     OW 5425   2.949   2.110   2.257  0.3912  0.2766  0.2857
 1357SOL    HW2 5426   3.025   2.058   2.284 -0.4222 -1.1781 -0.1592
 1357SOL    HW3 5427   2.874   2.064   2.296 -0.3204  1.2953  0.1317
 1357SOL    MW4 5428   2.949   2.097   2.266  0.1900  0.2191  0.2067
 1358SOL     OW 5429   2.972   2.366   2.357  0.0092  0.5420  0.5832
 1358SOL    HW2 5430   2.972   2.375   2.452 -0.1559 -1.0270  0.7421
 1358SOL    HW3 5431   2.992   2.274   2.341  0.6380  0.9207 -0.9203
 1358SOL    MW4 5432   2.975   2.355   2.367  0.0704  0.3849  0.4058
 1359SOL     OW 5433   2.733   2.437   2.262 -0.0590 -0.6534  0.0584
 1359SOL    HW2 5434   2.825   2.415   2.278  1.0598  2.0965 -2.0959
 1359SOL    HW3 5435   2.724   2.429   2.167 -1.5164  0.9727  0.0539
 1359SOL    MW4 5436   2.744   2.433   2.251 -0.1037 -0.0761 -0.2264
 1360SOL     OW 5437   2.719   2.675   2.392 -0.2000 -0.0123 -0.2832
 1360SOL    HW2 5438   2.791   2.722   2.348  1.6154 -1.6282  0.8769
 1360SOL    HW3 5439   2.719   2.589   2.350 -0.9210 -0.2880  0.2920
 1360SOL    MW4 5440   2.729   2.670   2.380 -0.0556 -0.2619 -0.0542
 1361SOL     OW 5441   2.900   2.804   2.247  0.0539  0.1690  0.0173
 1361SOL    HW2 5442   2.897   2.896   2.273  1.0903 -0.1769  1.4189
 1361SOL    HW3 5443   2.901   2.806   2.152 -0.2038  1.6022  0.0368
 1361SOL    MW4 5444   2.900   2.816   2.238  0.1566  0.3124  0.2048
 1362SOL     OW 5445   2.921   3.080   2.319 -0.0387  0.2357  0.4229
 1362SOL    HW2 5446   3.001   3.121   2.283  0.7422 -0.2673  1.5656
 1362SOL    HW3 5447   2.852   3.145   2.303  0.3019  0.0986 -1.8419
 1362SOL    MW4 5448   2.923   3.094   2.312  0.1093  0.1512  0.2749
 1363SOL     OW 5449   2.696   3.242   2.242 -0.0485 -0.0099 -0.0143
 1363SOL    HW2 5450   2.716   3.330   2.273 -0.3643 -0.3134  1.0991
 1363SOL    HW3 5451   2.699   3.248   2.147 -0.5280  1.2997  0.0495
 1363SOL    MW4 5452   2.699   3.254   2.234 -0.1534  0.1229  0.1410
 1364SOL     OW 5453   2.746   3.486   2.372 -0.1385 -0.0598 -0.2828
 1364SOL    HW2 5454   2.824   3.525   2.334 -0.3065  0.6319  0.0719
 1364SOL    HW3 5455   2.674   3.541   2.340 -0.4838 -0.6999 -0.6199
 1364SOL    MW4 5456   2.747   3.498   2.363 -0.2062 -0.0530 -0.2805
 1365SOL     OW 5457   2.950   3.595   2.239  0.1246 -0.4488  0.0865
 1365SOL    HW2 5458   3.013   3.541   2.286  1.3068  0.4531 -0.4237
 1365SOL    HW3 5459   2.967   3.685   2.269  0.4208  0.0458 -1.5180
 1365SOL    MW4 5460   2.960   3.600   2.249  0.3197 -0.2646 -0.1925
 1366SOL     OW 5461   2.994   3.873   2.368  0.4070  0.3985  0.6568
 1366SOL    HW2 5462   2.971   3.860   2.460 -0.2818 -0.6453  0.3496
 1366SOL    HW3 5463   2.915   3.909   2.329  0.2966 -0.2922  0.2336
 1366SOL    MW4 5464   2.981   3.876   2.375  0.3016  0.1696  0.5604
 1367SOL     OW 5465   2.759   3.990   2.264 -0.5165 -0.4244  0.8932
 1367SOL    HW2 5466   2.688   3.947   2.312 -0.3969  0.3479  1.7921
 1367SOL    HW3 5467   2.730   3.989   2.173 -1.9920  0.4585  1.3287
 1367SOL    MW4 5468   2.746   3.984   2.258 -0.6954 -0.2060  1.0693
 1368SOL     OW 5469   2.662   4.258   2.314  0.4749 -0.1879 -0.2056
 1368SOL    HW2 5470   2.673   4.254   2.409 -0.9177  0.5369  0.0016
 1368SOL    HW3 5471   2.674   4.167   2.285  0.5068 -0.4858  0.7206
 1368SOL    MW4 5472   2.665   4.245   2.322  0.2954 -0.1316 -0.0560
 1369SOL     OW 5473   2.886   4.389   2.289  0.3123 -0.3917 -0.3156
 1369SOL    HW2 5474   2.952   4.326   2.320 -1.3858 -2.1601 -0.1955
 1369SOL    HW3 5475   2.803   4.341   2.294 -0.8380  1.4119 -1.5740
 1369SOL    MW4 5476   2.884   4.374   2.294 -0.0635 -0.3870 -0.4658
 1370SOL     OW 5477   3.355   4.659   2.374  0.1873 -0.2769 -0.7918
 1370SOL    HW2 5478   3.340   4.660   2.468 -1.5573  0.5927 -1.0590
 1370SOL    HW3 5479   3.443   4.696   2.363  1.0080 -1.7691  0.5726
 1370SOL    MW4 5480   3.364   4.664   2.385  0.0654 -0.3591 -0.6471
 1371SOL     OW 5481   3.152   0.105   2.235 -0.2399 -0.0116  0.0177
 1371SOL    HW2 5482   3.137   0.190   2.275 -0.4021 -0.2680  0.5027
 1371SOL    HW3 5483   3.233   0.074   2.275  0.0364  0.0926 -0.4577
 1371SOL    MW4 5484   3.161   0.112   2.245 -0.2248 -0.0317  0.0190
 1372SOL     OW 5485   3.150   0.350   2.361 -0.1416 -0.2880  0.0688
 1372SOL    HW2 5486   3.214   0.411   2.323  0.1944 -1.9288 -2.1216
 1372SOL    HW3 5487   3.065   0.393   2.347  0.3213  1.1989  1.6123
 1372SOL    MW4 5488   3.147   0.364   2.354 -0.0362 -0.3083 -0.0166
 1373SOL     OW 5489   3.340   0.531   2.269  0.1507 -0.5657  0.6431
 1373SOL    HW2 5490   3.424   0.493   2.294  1.5934  1.2392 -1.3445
 1373SOL    HW3 5491   3.337   0.522   2.174 -1.0940  0.9874  0.5132
 1373SOL    MW4 5492   3.351   0.525   2.259  0.1768 -0.1227  0.3637
 1374SOL     OW 5493   3.381   0.796   2.362  0.1551 -0.5979  0.2340
 1374SOL    HW2 5494   3.470   0.814   2.332 -0.2675 -0.9431 -1.2865
 1374SOL    HW3 5495   3.359   0.712   2.322 -1.3259  0.1049 -0.4829
 1374SOL    MW4 5496   3.390   0.787   2.352 -0.0961 -0.5507 -0.0612
 1375SOL     OW 5497   3.140   0.902   2.259 -0.1936  0.3072 -0.0448
 1375SOL    HW2 5498   3.218   0.879   2.310 -1.2960  0.5901  1.7730
 1375SOL    HW3 5499   3.071   0.844   2.293 -1.2084  1.2726 -0.4448
 1375SOL    MW4 5500   3.141   0.891   2.270 -0.4729  0.4719  0.1422
 1376SOL     OW 5501   3.102   1.150   2.363  0.2311 -0.2685  0.3405
 1376SOL    HW2 5502   3.182   1.183   2.322 -0.7516 -0.0010 -1.4408
 1376SOL    HW3 5503   3.098   1.058   2.336 -0.4122 -0.0955 -0.1763
 1376SOL    MW4 5504   3.112   1.142   2.354  0.0165 -0.2104  0.0373
 1377SOL     OW 5505   3.349   1.268   2.278  0.5166  0.1649  0.1254
 1377SOL    HW2 5506   3.439   1.236   2.283  0.8077  0.7619 -1.1347
 1377SOL    HW3 5507   3.352   1.356   2.313  0.7096  0.7195 -1.2501
 1377SOL    MW4 5508   3.361   1.275   2.283  0.5805  0.3168 -0.2224
 1378SOL     OW 5509   3.353   1.536   2.384  0.8255  0.1239  0.4759
 1378SOL    HW2 5510   3.337   1.550   2.478 -0.0455 -0.9212  0.4818
 1378SOL    HW3 5511   3.296   1.599   2.340 -0.1536 -0.6620  0.6068
 1378SOL    MW4 5512   3.344   1.546   2.391  0.5814 -0.1177  0.4940
 1379SOL     OW 5513   3.176   1.710   2.258 -0.4994 -0.0800  0.1305
 1379SOL    HW2 5514   3.157   1.803   2.271 -1.2473 -0.1267 -0.6304
 1379SOL    HW3 5515   3.099   1.665   2.292 -0.6506 -0.3787 -0.6105
 1379SOL    MW4 5516   3.164   1.716   2.264 -0.6180 -0.1256 -0.0676
 1380SOL     OW 5517   3.159   1.973   2.346 -0.0143  0.1107  0.2790
 1380SOL    HW2 5518   3.157   1.941   2.436  0.7219  1.6211  0.8485
 1380SOL    HW3 5519   3.249   2.001   2.333 -0.4271  1.0957 -0.4908
 1380SOL    MW4 5520   3.171   1.973   2.356  0.0284  0.4400  0.2525
 1381SOL     OW 5521   3.414   2.071   2.278 -0.2722  0.7050 -0.3716
 1381SOL    HW2 5522   3.479   2.011   2.313 -0.6335  1.0835  0.9453
 1381SOL    HW3 5523   3.428   2.068   2.183  2.1684  1.3182 -0.0741
 1381SOL    MW4 5524   3.424   2.063   2.270  0.0021  0.8359 -0.1586
 1382SOL     OW 5525   3.356   2.339   2.339  0.6170 -0.2107  0.8725
 1382SOL    HW2 5526   3.287   2.386   2.293  2.2895  0.3035 -1.1865
 1382SOL    HW3 5527   3.359   2.253   2.298  1.4201 -0.1008  0.6751
 1382SOL    MW4 5528   3.347   2.334   2.328  0.9437 -0.1284  0.5748
 1383SOL     OW 5529   3.157   2.457   2.184 -0.1337  0.6881  0.1515
 1383SOL    HW2 5530   3.159   2.547   2.217  1.4056  0.9869 -0.6718
 1383SOL    HW3 5531   3.092   2.412   2.238  1.2889  1.5070  2.5976
 1383SOL    MW4 5532   3.149   2.463   2.195  0.2571  0.8356  0.3656
 1384SOL     OW 5533   3.129   2.700   2.332 -0.6652 -0.5883 -0.0588
 1384SOL    HW2 5534   3.117   2.682   2.425 -0.1044 -1.2347 -0.1076
 1384SOL    HW3 5535   3.046   2.740   2.304  0.3832  2.8718  1.4740
 1384SOL    MW4 5536   3.116   2.703   2.340 -0.4529 -0.2171  0.1370
 1385SOL     OW 5537   3.354   2.802   2.221 -0.1747 -0.4224  0.2986
 1385SOL    HW2 5538   3.346   2.894   2.247 -2.0484 -0.1593 -1.1460
 1385SOL    HW3 5539   3.288   2.756   2.273  0.1140 -0.8143  0.3271
 1385SOL    MW4 5540   3.344   2.808   2.232 -0.3839 -0.4394  0.1117
 1386SOL     OW 5541   3.362   3.075   2.317 -0.1525  0.3614  0.0032
 1386SOL    HW2 5542   3.434   3.136   2.302 -0.7563  1.2978  0.8532
 1386SOL    HW3 5543   3.283   3.125   2.294 -0.4953 -0.8929 -1.6465
 1386SOL    MW4 5544   3.361   3.090   2.312 -0.2774  0.3195 -0.1023
 1387SOL     OW 5545   3.154   3.228   2.240 -0.1392 -0.8656 -0.6910
 1387SOL    HW2 5546   3.139   3.311   2.285  2.0532 -1.0906  0.5321
 1387SOL    HW3 5547   3.151   3.249   2.147 -0.4139  0.4163 -0.3987
 1387SOL    MW4 5548   3.152   3.242   2.234  0.1138 -0.7261 -0.4911
 1388SOL     OW 5549   3.134   3.462   2.372  0.1041 -0.3158 -0.1610
 1388SOL    HW2 5550   3.137   3.464   2.468 -1.8030 -0.5348 -0.0750
 1388SOL    HW3 5551   3.218   3.498   2.345  0.5769 -0.0322  1.5989
 1388SOL    MW4 5552   3.145   3.467   2.381 -0.0851 -0.3072  0.0826
 1389SOL     OW 5553   3.360   3.595   2.269  0.0425 -0.6996  0.4594
 1389SOL    HW2 5554   3.445   3.564   2.299  1.1725 -0.4874 -2.3793
 1389SOL    HW3 5555   3.367   3.598   2.174 -2.5617  1.0236  0.2568
 1389SOL    MW4 5556   3.372   3.591   2.260 -0.1520 -0.4443  0.0581
 1390SOL     OW 5557   3.390   3.836   2.362  0.4000  0.1610 -0.2630
 1390SOL    HW2 5558   3.458   3.870   2.303 -0.6628  1.9985 -0.4737
 1390SOL    HW3 5559   3.374   3.747   2.331  1.8373  0.1314 -0.9782
 1390SOL    MW4 5560   3.397   3.829   2.350  0.4494  0.3995 -0.3851
 1391SOL     OW 5561   3.207   3.985   2.238  0.0070 -0.0041 -0.1669
 1391SOL    HW2 5562   3.275   3.940   2.289 -0.1157  0.5202  0.4628
 1391SOL    HW3 5563   3.125   3.955   2.276 -0.0759  0.7083  0.2135
 1391SOL    MW4 5564   3.205   3.975   2.250 -0.0201  0.1591 -0.0336
 1392SOL     OW 5565   3.134   4.234   2.327 -0.1858 -0.1567  0.1181
 1392SOL    HW2 5566   3.211   4.288   2.308 -1.5894  1.3212 -1.5402
 1392SOL    HW3 5567   3.160   4.146   2.299  1.1544  0.1731  0.2653
 1392SOL    MW4 5568   3.148   4.229   2.320 -0.1941  0.0818 -0.0812
 1393SOL     OW 5569   3.361   4.387   2.274 -0.1308 -0.0452  0.3618
 1393SOL    HW2 5570   3.358   4.475   2.311 -1.3069 -0.5003  1.3458
 1393SOL    HW3 5571   3.371   4.402   2.179 -1.0687  1.1402  0.4376
 1393SOL    MW4 5572   3.362   4.401   2.266 -0.4097  0.0512  0.5016
 1394SOL     OW 5573   3.843   4.651   2.328 -0.2705 -0.6868 -0.7087
 1394SOL    HW2 5574   3.845   4.671   2.422 -0.2606 -1.8184 -0.4648
 1394SOL    HW3 5575   3.933   4.663   2.298 -0.1242 -1.0742 -0.4187
 1394SOL    MW4 5576   3.855   4.655   2.337 -0.2499 -0.8872 -0.6383
 1395SOL     OW 5577   3.595   0.100   2.269 -0.1037 -0.0940  0.2298
 1395SOL    HW2 5578   3.599   0.191   2.299  0.6864 -0.3835  1.0372
 1395SOL    HW3 5579   3.680   0.064   2.292 -0.6382 -1.2125  0.4947
 1395SOL    MW4 5580   3.606   0.107   2.276 -0.0699 -0.2798  0.3713
 1396SOL     OW 5581   3.576   0.378   2.300 -0.4003 -0.1568  0.1554
 1396SOL    HW2 5582   3.583   0.378   2.395  1.9793  0.2138  0.0286
 1396SOL    HW3 5583   3.667   0.385   2.269 -1.2373  1.7251 -2.1065
 1396SOL    MW4 5584   3.589   0.379   2.308 -0.1968  0.1404 -0.1598
 1397SOL     OW 5585   3.838   0.421   2.248  0.3293 -0.1439  0.0613
 1397SOL    HW2 5586   3.870   0.504   2.284 -1.8416  0.9752 -0.4879
 1397SOL    HW3 5587   3.822   0.439   2.155  1.5676 -1.7104 -0.4795
 1397SOL    MW4 5588   3.840   0.434   2.240  0.2063 -0.2029 -0.0826
 1398SOL     OW 5589   3.856   0.711   2.361 -0.1999 -0.2954  0.2263
 1398SOL    HW2 5590   3.854   0.718   2.456  1.0666  1.0087  0.1794
 1398SOL    HW3 5591   3.925   0.772   2.334 -1.6716  0.6110 -1.6297
 1398SOL    MW4 5592   3.864   0.720   2.370 -0.2269 -0.0037 -0.0248
 1399SOL     OW 5593   3.635   0.838   2.263 -0.4023  0.0654  0.0150
 1399SOL    HW2 5594   3.719   0.799   2.290 -0.3187  0.9027  0.9967
 1399SOL    HW3 5595   3.634   0.829   2.168  0.3087 -0.9453  0.0991
 1399SOL    MW4 5596   3.646   0.832   2.254 -0.2975  0.0425  0.1557
 1400SOL     OW 5597   3.610   1.134   2.315  0.0608 -0.0405 -0.2670
 1400SOL    HW2 5598   3.616   1.127   2.410  1.4167  2.1102 -0.1550
 1400SOL    HW3 5599   3.614   1.044   2.283 -1.4058 -0.8453  1.7465
 1400SOL    MW4 5600   3.611   1.121   2.323  0.0462  0.1371  0.0134
 1401SOL     OW 5601   3.819   1.301   2.241 -0.3121 -0.0032  0.3073
 1401SOL    HW2 5602   3.819   1.383   2.290 -1.3428  0.1516  0.0606
 1401SOL    HW3 5603   3.743   1.253   2.274 -1.0530  0.1312 -1.1910
 1401SOL    MW4 5604   3.809   1.305   2.252 -0.5459  0.0349  0.0771
 1402SOL     OW 5605   3.851   1.526   2.386 -0.5245  0.0723  0.0841
 1402SOL    HW2 5606   3.821   1.489   2.470 -1.6148 -0.6935 -0.6239
 1402SOL    HW3 5607   3.772   1.558   2.344 -0.1507 -0.5470 -1.1357
 1402SOL    MW4 5608   3.837   1.525   2.392 -0.6190 -0.1105 -0.1703
 1403SOL     OW 5609   3.602   1.643   2.290  0.5954  0.0099 -0.2244
 1403SOL    HW2 5610   3.516   1.609   2.312  0.3240  0.8987  0.1262
 1403SOL    HW3 5611   3.599   1.656   2.195 -0.0609  1.1157 -0.0609
 1403SOL    MW4 5612   3.590   1.640   2.280  0.4730  0.2731 -0.1566
 1404SOL     OW 5613   3.586   1.886   2.388  0.5732 -0.0363  0.5112
 1404SOL    HW2 5614   3.653   1.928   2.334 -1.5064  1.1736 -1.1979
 1404SOL    HW3 5615   3.594   1.793   2.366  1.4580  0.1369  0.0489
 1404SOL    MW4 5616   3.596   1.879   2.378  0.4155  0.1462  0.2247
 1405SOL     OW 5617   3.782   2.006   2.238 -0.1499  0.1097  0.1340
 1405SOL    HW2 5618   3.863   1.983   2.285 -0.3825 -0.3138  0.3284
 1405SOL    HW3 5619   3.812   2.030   2.150  0.1956  0.0156  0.2236
 1405SOL    MW4 5620   3.797   2.006   2.233 -0.1350  0.0414  0.1715
 1406SOL     OW 5621   3.816   2.257   2.329 -0.2284 -0.3029  0.4309
 1406SOL    HW2 5622   3.742   2.311   2.299 -0.7322 -0.9678  0.4720
 1406SOL    HW3 5623   3.793   2.168   2.303 -0.1464 -0.7363  1.7870
 1406SOL    MW4 5624   3.803   2.253   2.321 -0.2841 -0.4478  0.6153
 1407SOL     OW 5625   3.600   2.421   2.277 -0.0649 -0.2658 -0.7845
 1407SOL    HW2 5626   3.510   2.397   2.297  0.3203 -0.3232  0.9580
 1407SOL    HW3 5627   3.600   2.441   2.183 -1.6147 -1.4565 -1.0400
 1407SOL    MW4 5628   3.588   2.421   2.267 -0.2186 -0.4305 -0.5883
 1408SOL     OW 5629   3.583   2.692   2.335  0.2677  0.3247 -0.3361
 1408SOL    HW2 5630   3.592   2.599   2.312 -1.0027  0.2220 -0.4216
 1408SOL    HW3 5631   3.497   2.717   2.303  0.9184  1.7536 -1.0262
 1408SOL    MW4 5632   3.573   2.683   2.328  0.1859  0.4996 -0.4384
 1409SOL     OW 5633   3.782   2.842   2.202 -0.5394  0.3335 -0.1755
 1409SOL    HW2 5634   3.796   2.927   2.243  0.0022 -0.4904  1.3984
 1409SOL    HW3 5635   3.720   2.798   2.260  0.2769 -0.8684 -0.1876
 1409SOL    MW4 5636   3.776   2.847   2.215 -0.3603  0.0662  0.0306
 1410SOL     OW 5637   3.795   3.087   2.355 -0.4198  0.3716  0.1473
 1410SOL    HW2 5638   3.791   3.083   2.451 -2.3250  0.2972  0.0701
 1410SOL    HW3 5639   3.853   3.161   2.337  1.7037 -0.9384  1.3594
 1410SOL    MW4 5640   3.803   3.096   2.365 -0.3910  0.1889  0.2971
 1411SOL     OW 5641   3.575   3.248   2.281 -0.5928 -0.4260  0.4538
 1411SOL    HW2 5642   3.594   3.341   2.288 -2.3804  0.0543 -0.6934
 1411SOL    HW3 5643   3.653   3.205   2.314 -0.1342  1.4837  1.9570
 1411SOL    MW4 5644   3.588   3.254   2.286 -0.7682 -0.1107  0.5008
 1412SOL     OW 5645   3.610   3.514   2.337  0.4517 -0.3763  0.2204
 1412SOL    HW2 5646   3.616   3.508   2.432  1.4298 -0.8619  0.1245
 1412SOL    HW3 5647   3.698   3.536   2.308  0.1549 -0.2067 -0.5763
 1412SOL    MW4 5648   3.622   3.516   2.346  0.5416 -0.4180  0.1026
 1413SOL     OW 5649   3.864   3.615   2.263  0.0976 -0.3338 -0.0462
 1413SOL    HW2 5650   3.833   3.690   2.314  1.3057 -0.4399  0.8520
 1413SOL    HW3 5651   3.854   3.642   2.172 -2.0414 -0.1260  0.2169
 1413SOL    MW4 5652   3.858   3.628   2.257 -0.0253 -0.3204  0.1070
 1414SOL     OW 5653   3.814   3.889   2.387 -0.6077  0.0917 -0.2882
 1414SOL    HW2 5654   3.820   3.901   2.482 -1.4442  0.1173 -0.2360
 1414SOL    HW3 5655   3.882   3.946   2.352 -0.6192  0.4607  0.2718
 1414SOL    MW4 5656   3.823   3.898   2.395 -0.7196  0.1437 -0.2075
 1415SOL     OW 5657   3.605   3.998   2.240 -0.7967 -0.1055  0.2874
 1415SOL    HW2 5658   3.605   4.087   2.276 -1.7274 -0.1719  0.4669
 1415SOL    HW3 5659   3.664   3.949   2.297 -0.4188  0.3564  0.2967
 1415SOL    MW4 5660   3.613   4.003   2.252 -0.8696 -0.0534  0.3123
 1416SOL     OW 5661   3.583   4.252   2.346 -0.0536  0.4298  0.3969
 1416SOL    HW2 5662   3.653   4.311   2.319  0.8728 -1.0909 -0.5964
 1416SOL    HW3 5663   3.504   4.288   2.306  0.0653  2.3484  1.8040
 1416SOL    MW4 5664   3.581   4.264   2.337  0.0844  0.4823  0.4515
 1417SOL     OW 5665   3.805   4.382   2.248  0.0202  0.0476 -0.0534
 1417SOL    HW2 5666   3.890   4.347   2.274  0.4107  0.9421 -0.0991
 1417SOL    HW3 5667   3.810   4.475   2.269 -2.3009 -0.5352  3.5152
 1417SOL    MW4 5668   3.817   4.390   2.254 -0.2345  0.0888  0.4114
 1418SOL     OW 5669   4.302   4.621   2.381 -0.1124  0.6170 -0.4725
 1418SOL    HW2 5670   4.310   4.629   2.476 -0.3607  0.8461 -0.4710
 1418SOL    HW3 5671   4.382   4.661   2.347 -0.8125  2.0812 -0.4191
 1418SOL    MW4 5672   4.314   4.627   2.389 -0.2376  0.8404 -0.4653
 1419SOL     OW 5673   4.092   0.081   2.263  0.1714 -0.0620  0.4683
 1419SOL    HW2 5674   4.075   0.162   2.309  1.0308  0.4767 -0.1532
 1419SOL    HW3 5675   4.168   0.043   2.307  0.8989  0.3786 -0.3961
 1419SOL    MW4 5676   4.100   0.086   2.275  0.3808  0.0672  0.2723
 1420SOL     OW 5677   4.082   0.329   2.360 -0.4305  0.6470 -0.0256
 1420SOL    HW2 5678   4.164   0.365   2.327  0.1066  0.0893  0.6951
 1420SOL    HW3 5679   4.014   0.374   2.308  0.3264  0.9069 -0.8098
 1420SOL    MW4 5680   4.084   0.340   2.348 -0.2598  0.6077 -0.0339
 1421SOL     OW 5681   4.302   0.487   2.285 -0.0952  0.4307  0.1985
 1421SOL    HW2 5682   4.313   0.580   2.301 -0.4198  0.3274  1.0045
 1421SOL    HW3 5683   4.378   0.446   2.327 -0.8390  0.1832  1.3210
 1421SOL    MW4 5684   4.314   0.494   2.292 -0.2362  0.3844  0.4530
 1422SOL     OW 5685   4.282   0.766   2.374 -0.0332 -0.4711  0.5395
 1422SOL    HW2 5686   4.200   0.800   2.340 -0.4510 -1.5619  0.4413
 1422SOL    HW3 5687   4.350   0.819   2.331 -0.6357 -0.4200 -0.3575
 1422SOL    MW4 5688   4.280   0.778   2.363 -0.1678 -0.6083  0.4082
 1423SOL     OW 5689   4.050   0.891   2.268  0.2331  0.0110 -0.1954
 1423SOL    HW2 5690   4.031   0.982   2.291 -1.2390 -0.2364 -0.4331
 1423SOL    HW3 5691   4.061   0.892   2.173  0.3685 -0.0423 -0.1808
 1423SOL    MW4 5692   4.049   0.904   2.259  0.0567 -0.0287 -0.2248
 1424SOL     OW 5693   4.026   1.160   2.342 -0.6631 -0.2202 -0.0569
 1424SOL    HW2 5694   4.001   1.179   2.433 -1.3863 -1.9821  0.1320
 1424SOL    HW3 5695   3.959   1.205   2.290  0.3813  1.7181  0.2262
 1424SOL    MW4 5696   4.014   1.169   2.347 -0.6207 -0.1969  0.0054
 1425SOL     OW 5697   4.274   1.306   2.254 -0.5072  0.8279  0.3336
 1425SOL    HW2 5698   4.199   1.266   2.298 -0.5341  0.4372 -0.0733
 1425SOL    HW3 5699   4.350   1.263   2.292 -0.5050  0.9200  0.4344
 1425SOL    MW4 5700   4.274   1.295   2.265 -0.5104  0.7885  0.2932
 1426SOL     OW 5701   4.257   1.561   2.368  0.1436  0.5830 -0.2141
 1426SOL    HW2 5702   4.261   1.479   2.318 -0.7610  1.7525 -2.2897
 1426SOL    HW3 5703   4.344   1.599   2.358  0.3023  0.2844  0.0261
 1426SOL    MW4 5704   4.269   1.555   2.360  0.0452  0.6979 -0.4563
 1427SOL     OW 5705   4.041   1.700   2.271  0.0912  0.0031 -0.1183
 1427SOL    HW2 5706   4.119   1.656   2.305  1.1903  1.7555 -0.3454
 1427SOL    HW3 5707   3.968   1.653   2.313  1.2489 -1.3926  0.4044
 1427SOL    MW4 5708   4.042   1.688   2.281  0.3889  0.0502 -0.0793
 1428SOL     OW 5709   4.016   1.966   2.357  0.4526 -0.1106  0.0452
 1428SOL    HW2 5710   4.018   1.960   2.452 -1.2714 -0.6277  0.0691
 1428SOL    HW3 5711   4.028   1.876   2.327  2.6464  0.2612 -0.2863
 1428SOL    MW4 5712   4.018   1.953   2.365  0.5146 -0.1298  0.0046
 1429SOL     OW 5713   4.275   2.033   2.256  0.1599 -0.1043 -0.2711
 1429SOL    HW2 5714   4.266   2.127   2.271  1.3969  0.0788 -0.6224
 1429SOL    HW3 5715   4.189   1.997   2.276 -0.1974  1.0484  0.2933
 1429SOL    MW4 5716   4.263   2.040   2.261  0.2760  0.0719 -0.2430
 1430SOL     OW 5717   4.266   2.290   2.323  0.2851  0.3864  0.5595
 1430SOL    HW2 5718   4.182   2.333   2.306  0.1862  0.9165  2.3135
 1430SOL    HW3 5719   4.331   2.348   2.282  0.0165  1.4314  1.5700
 1430SOL    MW4 5720   4.264   2.304   2.316  0.2366  0.5942  0.9242
 1431SOL     OW 5721   4.036   2.419   2.235 -0.1503 -0.7361 -0.0537
 1431SOL    HW2 5722   4.023   2.505   2.273  0.4810 -0.5408 -0.2682
 1431SOL    HW3 5723   3.962   2.367   2.266  0.0759 -0.4323  1.0097
 1431SOL    MW4 5724   4.025   2.423   2.244 -0.0371 -0.6702  0.0583
 1432SOL     OW 5725   3.985   2.711   2.325  0.0274  0.5912  0.1512
 1432SOL    HW2 5726   3.971   2.727   2.418 -0.4770  0.1612  0.1515
 1432SOL    HW3 5727   3.911   2.753   2.282 -1.2767 -1.6448  0.1500
 1432SOL    MW4 5728   3.974   2.719   2.332 -0.2112  0.2395  0.1511
 1433SOL     OW 5729   4.233   2.815   2.240 -0.2742  0.0547  0.0472
 1433SOL    HW2 5730   4.159   2.757   2.259 -0.1964  0.1144  0.5398
 1433SOL    HW3 5731   4.307   2.774   2.285 -0.3011  0.7538  0.7271
 1433SOL    MW4 5732   4.233   2.802   2.249 -0.2675  0.1548  0.2019
 1434SOL     OW 5733   4.243   3.076   2.387 -0.3531  0.1264  0.7295
 1434SOL    HW2 5734   4.221   2.996   2.338 -2.3749  0.3217  1.2763
 1434SOL    HW3 5735   4.306   3.122   2.331 -0.8263 -0.7970 -0.5958
 1434SOL    MW4 5736   4.248   3.071   2.373 -0.6823  0.0304  0.6268
 1435SOL     OW 5737   4.017   3.250   2.294 -0.1889 -0.4137  0.2162
 1435SOL    HW2 5738   4.048   3.336   2.323  0.6086 -0.8485  0.6534
 1435SOL    HW3 5739   4.087   3.190   2.318 -1.0332 -1.2893  0.5152
 1435SOL    MW4 5740   4.030   3.254   2.301 -0.1951 -0.5866  0.3133
 1436SOL     OW 5741   4.112   3.507   2.340  0.0270  0.6495 -0.5068
 1436SOL    HW2 5742   4.191   3.552   2.310  0.2987 -1.2671 -2.8086
 1436SOL    HW3 5743   4.039   3.555   2.300  0.2081  0.3296 -1.2271
 1436SOL    MW4 5744   4.113   3.519   2.331  0.0868  0.3544 -0.9055
 1437SOL     OW 5745   4.348   3.643   2.255 -0.1468 -0.3924  0.4343
 1437SOL    HW2 5746   4.307   3.718   2.300  1.6305  0.5545  0.5152
 1437SOL    HW3 5747   4.307   3.642   2.169  1.2308  1.9366 -0.2875
 1437SOL    MW4 5748   4.337   3.653   2.250  0.2695  0.0398  0.3497
 1438SOL     OW 5749   4.242   3.889   2.359  0.4024 -0.3482 -0.2619
 1438SOL    HW2 5750   4.241   3.901   2.454  0.2388  0.7923 -0.3941
 1438SOL    HW3 5751   4.326   3.926   2.332  0.4262 -0.6263 -0.5683
 1438SOL    MW4 5752   4.253   3.895   2.368  0.3840 -0.2344 -0.3198
 1439SOL     OW 5753   4.019   4.023   2.253 -0.4679 -0.0689 -0.2405
 1439SOL    HW2 5754   4.088   3.962   2.279  0.1714  0.1443 -1.3948
 1439SOL    HW3 5755   4.018   4.018   2.157 -3.0787 -1.1953 -0.1940
 1439SOL    MW4 5756   4.028   4.015   2.244 -0.7280 -0.1894 -0.3867
 1440SOL     OW 5757   4.031   4.276   2.382 -0.0034 -0.2802 -0.0245
 1440SOL    HW2 5758   4.120   4.299   2.355  0.7232 -0.9056  1.7352
 1440SOL    HW3 5759   4.022   4.183   2.360 -0.0692 -0.3140  0.1384
 1440SOL    MW4 5760   4.042   4.267   2.376  0.0838 -0.3672  0.2292
 1441SOL     OW 5761   4.295   4.361   2.279 -0.2369 -0.4040  0.1788
 1441SOL    HW2 5762   4.293   4.443   2.328 -1.9023  0.1131 -0.6941
 1441SOL    HW3 5763   4.366   4.310   2.319  1.1176  1.6350  0.4134
 1441SOL    MW4 5764   4.304   4.365   2.291 -0.2779 -0.0668  0.0946
 1442SOL     OW 5765   0.250   4.602   2.633  0.5234 -0.6065 -0.2424
 1442SOL    HW2 5766   0.234   4.511   2.658 -1.8095 -1.1985 -3.5446
 1442SOL    HW3 5767   0.183   4.652   2.679 -0.0990 -0.9701 -0.7346
 1442SOL    MW4 5768   0.239   4.597   2.642  0.1334 -0.7326 -0.7430
 1443SOL     OW 5769   0.064   0.102   2.751  0.2868  0.5383 -0.0043
 1443SOL    HW2 5770   0.031   0.094   2.841 -1.3853  0.1636 -0.6312
 1443SOL    HW3 5771   0.051   0.194   2.729  0.1042  0.4927 -0.0862
 1443SOL    MW4 5772   0.058   0.113   2.760  0.0421  0.4828 -0.0978
 1444SOL     OW 5773   4.487   0.355   2.690 -0.0488 -0.1089 -0.0966
 1444SOL    HW2 5774   4.546   0.420   2.728 -0.3064  0.8555 -1.3003
 1444SOL    HW3 5775   4.500   0.364   2.595 -0.3845 -1.5361 -0.2808
 1444SOL    MW4 5776   4.496   0.365   2.682 -0.1270 -0.1700 -0.2797
 1445SOL     OW 5777   0.206   0.511   2.785  0.0537  0.4173 -0.1318
 1445SOL    HW2 5778   0.231   0.529   2.876 -0.4010 -0.1418  0.1042
 1445SOL    HW3 5779   0.276   0.453   2.752  0.5238  1.0846 -0.3190
 1445SOL    MW4 5780   0.219   0.506   2.793  0.0557  0.4316 -0.1254
 1446SOL     OW 5781   0.231   0.735   2.644 -0.0404 -0.4294 -0.1932
 1446SOL    HW2 5782   0.300   0.790   2.681  0.1002 -0.9400  0.3226
 1446SOL    HW3 5783   0.232   0.656   2.698 -0.9179 -0.5151 -0.2858
 1446SOL    MW4 5784   0.240   0.732   2.656 -0.1376 -0.5081 -0.1374
 1447SOL     OW 5785   0.038   0.868   2.764 -0.3972  0.6798  0.1607
 1447SOL    HW2 5786  -0.042   0.822   2.738 -0.0592 -0.1928  0.6600
 1447SOL    HW3 5787   0.108   0.821   2.719 -0.0223  0.5265  0.9130
 1447SOL    MW4 5788   0.037   0.856   2.754 -0.3031  0.5444  0.3258
 1448SOL     OW 5789   4.478   1.123   2.651 -0.2314 -0.2015 -0.2361
 1448SOL    HW2 5790   4.554   1.170   2.685 -1.6467  1.5587  0.5918
 1448SOL    HW3 5791   4.488   1.033   2.682  1.4904  0.0285 -0.1138
 1448SOL    MW4 5792   4.489   1.118   2.659 -0.1909  0.0611 -0.1108
 1449SOL     OW 5793   0.207   1.258   2.776  0.1741 -0.8506 -0.5698
 1449SOL    HW2 5794   0.283   1.229   2.725  1.9938 -0.3922  1.8264
 1449SOL    HW3 5795   0.195   1.349   2.750  0.7048 -0.7977 -0.6408
 1449SOL    MW4 5796   0.216   1.266   2.766  0.4842 -0.7832 -0.2631
 1450SOL     OW 5797   0.238   1.505   2.658  0.7429  0.1111  0.1061
 1450SOL    HW2 5798   0.310   1.561   2.687  0.5482 -0.7496  2.3418
 1450SOL    HW3 5799   0.159   1.557   2.671  0.6537 -0.2822  1.2009
 1450SOL    MW4 5800   0.237   1.519   2.663  0.7054 -0.0544  0.5455
 1451SOL     OW 5801   0.008   1.659   2.705  0.1708 -0.5360 -0.0571
 1451SOL    HW2 5802   0.004   1.654   2.800  2.0760  0.4520  0.1003
 1451SOL    HW3 5803   0.012   1.753   2.686  1.0234 -0.7614 -1.0389
 1451SOL    MW4 5804   0.008   1.670   2.715  0.5347 -0.4354 -0.1659
 1452SOL     OW 5805   4.472   1.935   2.648 -0.5513 -0.8398  0.3832
 1452SOL    HW2 5806   4.555   1.965   2.685 -1.1073  1.8978 -0.4441
 1452SOL    HW3 5807   4.489   1.926   2.554 -0.8379 -1.5464  0.3973
 1452SOL    MW4 5808   4.485   1.938   2.640 -0.6624 -0.5718  0.2759
 1453SOL     OW 5809   0.227   2.051   2.704  0.1756  0.0247  0.1615
 1453SOL    HW2 5810   0.285   1.992   2.656 -0.4934 -0.4113 -0.1158
 1453SOL    HW3 5811   0.233   2.134   2.657 -1.6156 -0.7939 -1.6072
 1453SOL    MW4 5812   0.235   2.054   2.692 -0.1490 -0.1409 -0.1085
 1454SOL     OW 5813   0.234   2.322   2.599  0.2880  0.1472 -0.0794
 1454SOL    HW2 5814   0.310   2.341   2.654  1.0477  0.1474 -1.1203
 1454SOL    HW3 5815   0.162   2.371   2.640  1.6406  3.2492 -1.2388
 1454SOL    MW4 5816   0.235   2.331   2.612  0.5667  0.5565 -0.3697
 1455SOL     OW 5817   4.463   2.454   2.723 -0.1664  0.3231 -0.2150
 1455SOL    HW2 5818   4.466   2.438   2.817 -0.3826  1.6704  0.0305
 1455SOL    HW3 5819   4.391   2.400   2.691 -0.9437  0.8849  0.6002
 1455SOL    MW4 5820   4.454   2.445   2.731 -0.2975  0.5750 -0.0751
 1456SOL     OW 5821   4.462   2.724   2.616 -0.5625  0.1053  0.2805
 1456SOL    HW2 5822   4.380   2.772   2.629 -0.3789  0.1009  1.5358
 1456SOL    HW3 5823   4.451   2.644   2.667  0.1294 -0.0057  0.2607
 1456SOL    MW4 5824   4.449   2.720   2.625 -0.4470  0.0901  0.4435
 1457SOL     OW 5825   0.180   2.815   2.754  0.2428  0.4300  0.0810
 1457SOL    HW2 5826   0.198   2.904   2.723 -0.0959  0.0952 -1.0712
 1457SOL    HW3 5827   0.108   2.784   2.700 -0.1280 -0.2842  0.9742
 1457SOL    MW4 5828   0.173   2.823   2.743  0.1492  0.2916  0.0468
 1458SOL     OW 5829   0.205   3.076   2.661  0.6709 -0.3969 -0.3778
 1458SOL    HW2 5830   0.288   3.116   2.687 -0.2251  1.0299  0.3463
 1458SOL    HW3 5831   0.198   3.095   2.567  0.1210  1.4311  0.0103
 1458SOL    MW4 5832   0.215   3.084   2.652  0.4801  0.0325 -0.2311
 1459SOL     OW 5833   4.475   3.230   2.787  0.8480  0.3269  0.1140
 1459SOL    HW2 5834   4.399   3.188   2.746  1.1586  0.8667 -1.0591
 1459SOL    HW3 5835   4.550   3.193   2.741  1.2543  0.3400  0.7669
 1459SOL    MW4 5836   4.475   3.219   2.775  0.9426  0.3998  0.0453
 1460SOL     OW 5837   4.477   3.479   2.644  0.1870 -0.1178  0.6566
 1460SOL    HW2 5838   4.566   3.511   2.662 -0.1786  0.4333  1.4870
 1460SOL    HW3 5839   4.464   3.409   2.708 -0.2226  0.2521  0.9811
 1460SOL    MW4 5840   4.487   3.474   2.655  0.0847  0.0037  0.8090
 1461SOL     OW 5841   0.236   3.565   2.748  0.3407 -0.0348 -0.3962
 1461SOL    HW2 5842   0.235   3.594   2.839 -1.6188 -1.1412 -0.0278
 1461SOL    HW3 5843   0.317   3.515   2.739 -0.0358 -0.9261  1.0769
 1461SOL    MW4 5844   0.246   3.562   2.758  0.0325 -0.2984 -0.1532
 1462SOL     OW 5845   0.237   3.847   2.634  0.1853  0.4435  0.4014
 1462SOL    HW2 5846   0.239   3.754   2.657  0.1901  0.1221 -0.8919
 1462SOL    HW3 5847   0.224   3.848   2.540  0.2964  1.7626  0.3971
 1462SOL    MW4 5848   0.235   3.835   2.625  0.2006  0.5751  0.2302
 1463SOL     OW 5849   0.013   3.974   2.744  0.3805  0.4865  0.0254
 1463SOL    HW2 5850   0.017   4.059   2.699  0.7362  0.1779 -0.5366
 1463SOL    HW3 5851   0.095   3.931   2.719 -0.7566 -0.8878 -1.4262
 1463SOL    MW4 5852   0.024   3.980   2.735  0.2774  0.2645 -0.2403
 1464SOL     OW 5853   0.017   4.237   2.671  0.3056  0.1868  0.4998
 1464SOL    HW2 5854  -0.047   4.295   2.713  0.6482  0.7408  0.2568
 1464SOL    HW3 5855   0.101   4.265   2.705  0.5341  0.2633 -0.1097
 1464SOL    MW4 5856   0.019   4.249   2.681  0.3810  0.2700  0.3873
 1465SOL     OW 5857   0.256   4.330   2.742  0.3540  0.8172 -0.0165
 1465SOL    HW2 5858   0.245   4.337   2.837  0.0659 -0.2391  0.0322
 1465SOL    HW3 5859   0.339   4.284   2.730 -0.0183  0.2051 -0.2614
 1465SOL    MW4 5860   0.265   4.325   2.753  0.2668  0.5971 -0.0424
 1466SOL     OW 5861   0.669   0.002   2.637  0.1706  0.0509 -0.0328
 1466SOL    HW2 5862   0.746   0.046   2.672 -0.4229  0.9525  0.1736
 1466SOL    HW3 5863   0.595   0.047   2.678 -0.4478 -1.6348  0.7572
 1466SOL    MW4 5864   0.669   0.014   2.647  0.0107 -0.0526  0.0987
 1467SOL     OW 5865   0.450   0.089   2.748  0.2240 -0.2413  0.0240
 1467SOL    HW2 5866   0.452   0.074   2.843  0.3387 -0.2517  0.0198
 1467SOL    HW3 5867   0.382   0.030   2.717  0.7550 -0.8440 -0.0060
 1467SOL    MW4 5868   0.441   0.079   2.757  0.3092 -0.3222  0.0195
 1468SOL     OW 5869   0.408   0.360   2.693  0.3121  0.4235  0.0931
 1468SOL    HW2 5870   0.473   0.412   2.739 -0.9705 -0.2654  2.7853
 1468SOL    HW3 5871   0.427   0.269   2.717 -1.0595  0.1423  0.1794
 1468SOL    MW4 5872   0.419   0.355   2.702 -0.0381  0.2955  0.4597
 1469SOL     OW 5873   0.656   0.485   2.768 -0.5222  0.3228  0.2745
 1469SOL    HW2 5874   0.674   0.487   2.862 -0.8950 -0.5208  0.3724
 1469SOL    HW3 5875   0.740   0.460   2.728 -0.8682 -1.3619  0.5537
 1469SOL    MW4 5876   0.670   0.482   2.775 -0.6171 -0.0107  0.3242
 1470SOL     OW 5877   0.664   0.737   2.658 -0.0692  0.0726  0.0070
 1470SOL    HW2 5878   0.741   0.772   2.704 -1.5134  0.9935  1.7772
 1470SOL    HW3 5879   0.661   0.645   2.685  0.4210  0.0270 -0.0821
 1470SOL    MW4 5880   0.674   0.730   2.668 -0.1951  0.1881  0.2288
 1471SOL     OW 5881   0.441   0.868   2.747  0.3198  0.1500 -0.4484
 1471SOL    HW2 5882   0.457   0.962   2.738  2.1521 -0.1189 -0.2935
 1471SOL    HW3 5883   0.517   0.827   2.705 -0.3690 -1.2516 -0.3429
 1471SOL    MW4 5884   0.453   0.875   2.740  0.4706 -0.0704 -0.4140
 1472SOL     OW 5885   0.447   1.139   2.679  0.3306 -0.2911  0.3188
 1472SOL    HW2 5886   0.525   1.186   2.707  0.3825  1.4795 -2.6238
 1472SOL    HW3 5887   0.455   1.132   2.584 -3.1784  0.1293 -0.0925
 1472SOL    MW4 5888   0.458   1.144   2.670 -0.1256 -0.0021 -0.1237
 1473SOL     OW 5889   0.704   1.246   2.778 -0.4896 -0.2062  0.0238
 1473SOL    HW2 5890   0.700   1.260   2.873  0.1297 -0.1366  0.0414
 1473SOL    HW3 5891   0.792   1.211   2.763 -0.7553 -0.6589 -0.4666
 1473SOL    MW4 5892   0.715   1.244   2.789 -0.4430 -0.2567 -0.0386
 1474SOL     OW 5893   0.710   1.507   2.676  0.1239 -0.1145 -0.0208
 1474SOL    HW2 5894   0.625   1.550   2.687  0.5175  0.7286 -0.2641
 1474SOL    HW3 5895   0.691   1.414   2.690 -0.9612 -0.0072 -0.6963
 1474SOL    MW4 5896   0.696   1.501   2.679  0.0326  0.0109 -0.1420
 1475SOL     OW 5897   0.464   1.648   2.734  0.2999  0.3489  0.3945
 1475SOL    HW2 5898   0.476   1.686   2.821  1.5309  0.5920  0.1393
 1475SOL    HW3 5899   0.457   1.723   2.675  0.6090  0.1921  0.1506
 1475SOL    MW4 5900   0.465   1.663   2.737  0.5031  0.3603  0.3286
 1476SOL     OW 5901   0.429   1.902   2.604 -0.2485 -0.1515 -0.0011
 1476SOL    HW2 5902   0.504   1.940   2.650 -1.4408  0.2199  1.6390
 1476SOL    HW3 5903   0.457   1.899   2.512  1.7659 -0.0060  0.5880
 1476SOL    MW4 5904   0.443   1.906   2.598 -0.1400 -0.0833  0.2930
 1477SOL     OW 5905   0.635   2.011   2.743  0.2644  0.4463  0.0680
 1477SOL    HW2 5906   0.634   2.020   2.838  1.1401  2.1015 -0.0663
 1477SOL    HW3 5907   0.723   1.981   2.722  0.2403  0.5955 -0.2567
 1477SOL    MW4 5908   0.646   2.009   2.753  0.3768  0.6844  0.0074
 1478SOL     OW 5909   0.666   2.265   2.610 -0.7738  0.1309  0.0588
 1478SOL    HW2 5910   0.738   2.304   2.660  0.1107 -0.6818 -0.5564
 1478SOL    HW3 5911   0.655   2.178   2.648  1.1323 -1.1934 -2.3171
 1478SOL    MW4 5912   0.674   2.259   2.622 -0.4056 -0.1510 -0.3358
 1479SOL     OW 5913   0.466   2.435   2.718  0.5507  0.0462 -0.0888
 1479SOL    HW2 5914   0.475   2.524   2.684  0.1627 -0.0872 -0.5298
 1479SOL    HW3 5915   0.530   2.384   2.669  0.7073  0.0569  0.0993
 1479SOL    MW4 5916   0.476   2.440   2.707  0.5202  0.0300 -0.1222
 1480SOL     OW 5917   0.477   2.699   2.618 -0.3426  0.0521  0.8402
 1480SOL    HW2 5918   0.557   2.742   2.649  0.3971 -1.1615  0.6407
 1480SOL    HW3 5919   0.406   2.747   2.662  0.5672  0.0743  2.3364
 1480SOL    MW4 5920   0.478   2.711   2.628 -0.1250 -0.1051  1.0113
 1481SOL     OW 5921   0.704   2.791   2.731 -0.2089 -0.3199 -0.0636
 1481SOL    HW2 5922   0.719   2.797   2.825  3.0757  1.4585 -0.6132
 1481SOL    HW3 5923   0.693   2.882   2.703 -1.0838 -0.8300 -1.3958
 1481SOL    MW4 5924   0.705   2.804   2.739  0.1090 -0.1526 -0.3118
 1482SOL     OW 5925   0.667   3.069   2.659 -0.2393  0.2837  0.2345
 1482SOL    HW2 5926   0.742   3.128   2.671 -1.2149  1.7805 -0.8460
 1482SOL    HW3 5927   0.655   3.064   2.564 -0.4566 -1.3040  0.3353
 1482SOL    MW4 5928   0.675   3.076   2.648 -0.3967  0.2717  0.1053
 1483SOL     OW 5929   0.438   3.165   2.758  0.1118  0.0986 -0.5726
 1483SOL    HW2 5930   0.452   3.181   2.851 -0.0066  0.0899 -0.5535
 1483SOL    HW3 5931   0.516   3.117   2.730 -0.0363 -0.2502 -0.3881
 1483SOL    MW4 5932   0.450   3.161   2.767  0.0766  0.0514 -0.5457
 1484SOL     OW 5933   0.483   3.440   2.674 -0.2467 -0.2747 -0.0895
 1484SOL    HW2 5934   0.494   3.345   2.682 -1.3677 -0.4025 -0.0793
 1484SOL    HW3 5935   0.461   3.454   2.582  3.0938  0.2971 -0.8598
 1484SOL    MW4 5936   0.482   3.429   2.663  0.0462 -0.2161 -0.1898
 1485SOL     OW 5937   0.678   3.604   2.743 -0.3577  0.1713  0.4377
 1485SOL    HW2 5938   0.682   3.605   2.838  0.3297  1.3218  0.4129
 1485SOL    HW3 5939   0.609   3.542   2.722  0.2390 -0.9120  1.6543
 1485SOL    MW4 5940   0.669   3.596   2.753 -0.1882  0.1802  0.5949
 1486SOL     OW 5941   0.679   3.860   2.660 -0.2887 -0.5968 -0.2219
 1486SOL    HW2 5942   0.594   3.898   2.679  0.0612  0.3470 -0.5253
 1486SOL    HW3 5943   0.670   3.767   2.682 -1.7479 -0.7493 -1.4508
 1486SOL    MW4 5944   0.667   3.853   2.666 -0.4351 -0.4924 -0.4241
 1487SOL     OW 5945   0.452   3.960   2.774  0.6492 -0.4156  0.4749
 1487SOL    HW2 5946   0.455   4.054   2.756  0.6735 -0.6030 -0.5195
 1487SOL    HW3 5947   0.373   3.929   2.730  0.6087 -0.8518  0.8489
 1487SOL    MW4 5948   0.442   3.968   2.766  0.6471 -0.4979  0.3930
 1488SOL     OW 5949   0.500   4.224   2.684  0.3970  0.1538  0.1234
 1488SOL    HW2 5950   0.550   4.299   2.715 -0.0385  0.8071 -0.7451
 1488SOL    HW3 5951   0.477   4.246   2.594  1.2566 -1.5104 -0.5301
 1488SOL    MW4 5952   0.504   4.237   2.676  0.4529  0.0204 -0.0774
 1489SOL     OW 5953   0.659   4.415   2.769 -0.3865  0.3365  0.2422
 1489SOL    HW2 5954   0.734   4.366   2.736 -0.8047 -1.3360  1.6842
 1489SOL    HW3 5955   0.658   4.496   2.717  0.5826 -0.9716 -1.8809
 1489SOL    MW4 5956   0.669   4.419   2.758 -0.3138 -0.0568  0.1523
 1490SOL     OW 5957   1.135   4.609   2.642  0.1179  0.0569 -0.2590
 1490SOL    HW2 5958   1.216   4.647   2.675  0.1786 -0.5866  0.3413
 1490SOL    HW3 5959   1.124   4.528   2.691 -0.7933  0.0459 -0.4595
 1490SOL    MW4 5960   1.144   4.604   2.653  0.0057 -0.0295 -0.2062
 1491SOL     OW 5961   0.916   0.107   2.717  0.3604  0.6028 -0.3028
 1491SOL    HW2 5962   0.921   0.092   2.811  2.3299  0.4286 -0.4079
 1491SOL    HW3 5963   0.988   0.055   2.681 -0.7875  0.1271 -1.9748
 1491SOL    MW4 5964   0.927   0.098   2.724  0.4688  0.5170 -0.5373
 1492SOL     OW 5965   0.899   0.384   2.649  0.0646  0.0597  0.1888
 1492SOL    HW2 5966   0.918   0.297   2.684  0.8326  0.2805  0.3332
 1492SOL    HW3 5967   0.869   0.368   2.560 -2.4770 -0.5595  1.0963
 1492SOL    MW4 5968   0.897   0.370   2.642 -0.1694  0.0071  0.3276
 1493SOL     OW 5969   1.132   0.483   2.754 -0.6788 -0.0481  0.3416
 1493SOL    HW2 5970   1.133   0.572   2.718  0.3871  0.2034  0.9511
 1493SOL    HW3 5971   1.052   0.444   2.720 -1.0696  1.0916 -0.0723
 1493SOL    MW4 5972   1.122   0.489   2.745 -0.5897  0.1355  0.3674
 1494SOL     OW 5973   1.115   0.747   2.636  0.2799  0.2961 -0.1855
 1494SOL    HW2 5974   1.195   0.780   2.677 -0.3138  1.0419  0.3872
 1494SOL    HW3 5975   1.125   0.767   2.544  1.5633 -1.2631 -0.4115
 1494SOL    MW4 5976   1.127   0.754   2.630  0.3709  0.1888 -0.1398
 1495SOL     OW 5977   0.882   0.864   2.783  0.1403  0.2395  0.2760
 1495SOL    HW2 5978   0.911   0.880   2.873  0.2190  0.6622  0.1750
 1495SOL    HW3 5979   0.951   0.808   2.746 -0.2864 -0.5871  0.7171
 1495SOL    MW4 5980   0.895   0.859   2.790  0.0944  0.1862  0.3209
 1496SOL     OW 5981   0.927   1.122   2.686  0.0769 -0.1982 -0.0493
 1496SOL    HW2 5982   0.907   1.034   2.718 -0.6889  0.2082  0.6111
 1496SOL    HW3 5983   0.917   1.117   2.591 -0.0198 -0.8056 -0.0076
 1496SOL    MW4 5984   0.923   1.110   2.678 -0.0369 -0.2247  0.0434
 1497SOL     OW 5985   1.169   1.238   2.704  0.0844 -0.3173 -0.1571
 1497SOL    HW2 5986   1.143   1.328   2.686  0.4609  0.0004  0.8716
 1497SOL    HW3 5987   1.089   1.187   2.694 -0.2012  0.1768 -0.3798
 1497SOL    MW4 5988   1.155   1.243   2.700  0.0964 -0.2102 -0.0507
 1498SOL     OW 5989   1.112   1.508   2.672  0.3931  0.4824 -0.2855
 1498SOL    HW2 5990   1.042   1.562   2.708  2.0292  1.7847  1.0167
 1498SOL    HW3 5991   1.112   1.528   2.578 -0.0962  1.4860 -0.0749
 1498SOL    MW4 5992   1.103   1.518   2.664  0.5444  0.7867 -0.0859
 1499SOL     OW 5993   0.917   1.675   2.779  0.1362  0.7360  0.1572
 1499SOL    HW2 5994   0.929   1.653   2.871  0.2265  0.6264  0.1194
 1499SOL    HW3 5995   0.833   1.635   2.755  0.1146  0.7614  0.1913
 1499SOL    MW4 5996   0.907   1.667   2.788  0.1453  0.7249  0.1567
 1500SOL     OW 5997   0.894   1.940   2.657 -0.3930 -0.1559  0.4148
 1500SOL    HW2 5998   0.981   1.975   2.676 -0.0097 -1.5100  1.2842
 1500SOL    HW3 5999   0.901   1.847   2.679 -1.3082 -0.8488 -2.0468
 1500SOL    MW4 6000   0.906   1.932   2.663 -0.4632 -0.4260  0.2047
 1501SOL     OW 6001   1.130   2.061   2.752 -0.4379 -0.6451 -0.0140
 1501SOL    HW2 6002   1.210   2.020   2.720 -0.9973 -1.5873 -0.2444
 1501SOL    HW3 6003   1.129   2.148   2.712 -0.0924 -1.0525 -0.9154
 1501SOL    MW4 6004   1.140   2.067   2.742 -0.4662 -0.8232 -0.1633
 1502SOL     OW 6005   1.131   2.296   2.639  0.0816 -0.0628 -0.2142
 1502SOL    HW2 6006   1.217   2.325   2.669  0.2375  0.0455 -0.7754
 1502SOL    HW3 6007   1.129   2.318   2.546 -0.1022 -1.1459 -0.4693
 1502SOL    MW4 6008   1.142   2.303   2.631  0.0779 -0.1915 -0.3219
 1503SOL     OW 6009   0.885   2.394   2.724 -0.4744  0.0201 -0.3682
 1503SOL    HW2 6010   0.895   2.487   2.701  0.1595 -0.1698 -0.8714
 1503SOL    HW3 6011   0.970   2.355   2.703 -0.9709 -0.8194 -0.8372
 1503SOL    MW4 6012   0.897   2.401   2.718 -0.4562 -0.1157 -0.4965
 1504SOL     OW 6013   0.926   2.646   2.644  0.8604  0.6124 -0.4147
 1504SOL    HW2 6014   1.011   2.690   2.648  0.0012  2.2593  0.4542
 1504SOL    HW3 6015   0.864   2.711   2.677 -0.5062 -1.1648  0.5935
 1504SOL    MW4 6016   0.929   2.661   2.649  0.5667  0.5952 -0.1670
 1505SOL     OW 6017   1.160   2.810   2.734  0.0195 -0.6739 -0.0030
 1505SOL    HW2 6018   1.161   2.834   2.827  0.0396 -0.5593 -0.0326
 1505SOL    HW3 6019   1.245   2.768   2.720  0.9210  1.2373 -0.4674
 1505SOL    MW4 6020   1.171   2.808   2.745  0.1411 -0.4066 -0.0682
 1506SOL     OW 6021   1.157   3.095   2.653 -0.0636 -0.3066  0.9259
 1506SOL    HW2 6022   1.169   3.007   2.689 -0.4256 -0.8805 -0.3121
 1506SOL    HW3 6023   1.142   3.080   2.560 -1.1191  1.0113  0.8808
 1506SOL    MW4 6024   1.157   3.081   2.645 -0.2506 -0.2084  0.7566
 1507SOL     OW 6025   0.919   3.191   2.724 -0.5556 -0.2207 -0.0495
 1507SOL    HW2 6026   0.917   3.287   2.724  1.0688 -0.1670  0.6259
 1507SOL    HW3 6027   1.006   3.170   2.689 -0.4088 -1.4168  1.0263
 1507SOL    MW4 6028   0.930   3.201   2.719 -0.3219 -0.3715  0.1816
 1508SOL     OW 6029   0.887   3.462   2.650  0.0000  0.0000 -0.0177
 1508SOL    HW2 6030   0.961   3.509   2.690  0.0000  0.0000 -0.0614
 1508SOL    HW3 6031   0.810   3.512   2.679  0.0000  0.0000  0.0151
 1508SOL    MW4 6032   0.887   3.475   2.659  0.0000  0.0000 -0.0191
 1509SOL     OW 6033   1.102   3.599   2.772  0.0000  0.0000  0.2921
 1509SOL    HW2 6034   1.101   3.626   2.864  0.0000  0.0000  0.2925
 1509SOL    HW3 6035   1.100   3.681   2.723  0.0000  0.0000  0.2928
 1509SOL    MW4 6036   1.102   3.613   2.778  0.0000  0.0000  0.2923
 1510SOL     OW 6037   1.098   3.851   2.659  0.0000  0.0000  0.0172
 1510SOL    HW2 6038   1.178   3.889   2.697  0.0000  0.0000  0.0143
 1510SOL    HW3 6039   1.110   3.859   2.564  0.0000  0.0000  0.0169
 1510SOL    MW4 6040   1.110   3.857   2.652  0.0000  0.0000  0.0168
 1511SOL     OW 6041   0.893   4.008   2.774  0.0000  0.0000 -0.0716
 1511SOL    HW2 6042   0.957   3.963   2.718  0.0000  0.0000 -0.0929
 1511SOL    HW3 6043   0.809   3.969   2.748  0.0000  0.0000 -0.0478
 1511SOL    MW4 6044   0.890   3.997   2.763  0.0000  0.0000 -0.0712
 1512SOL     OW 6045   0.888   4.266   2.681  0.0000  0.0000  0.2721
 1512SOL    HW2 6046   0.892   4.173   2.706  0.0000  0.0000  0.2698
 1512SOL    HW3 6047   0.884   4.265   2.586  0.0000  0.0000  0.2722
 1512SOL    MW4 6048   0.888   4.254   2.672  0.0000  0.0000  0.2718
 1513SOL     OW 6049   1.144   4.351   2.758  0.0000  0.0000  0.0186
 1513SOL    HW2 6050   1.137   4.378   2.850  0.0000  0.0000  0.0182
 1513SOL    HW3 6051   1.055   4.327   2.733  0.0000  0.0000  0.0176
 1513SOL    MW4 6052   1.131   4.351   2.767  0.0000  0.0000  0.0184
 1514SOL     OW 6053   1.593   4.643   2.664  0.0000  0.0000 -0.3946
 1514SOL    HW2 6054   1.588   4.549   2.681  0.0000  0.0000 -0.3944
 1514SOL    HW3 6055   1.581   4.652   2.570  0.0000  0.0000 -0.3947
 1514SOL    MW4 6056   1.591   4.632   2.654  0.0000  0.0000 -0.3946
 1515SOL     OW 6057   1.351   0.086   2.756  0.0000  0.0000  0.3468
 1515SOL    HW2 6058   1.350   0.171   2.711  0.0000  0.0000  0.3021
 1515SOL    HW3 6059   1.437   0.049   2.735  0.0000  0.0000  0.3770
 1515SOL    MW4 6060   1.362   0.092   2.747  0.0000  0.0000  0.3449
 1516SOL     OW 6061   1.360   0.344   2.645  0.0000  0.0000 -0.5687
 1516SOL    HW2 6062   1.437   0.387   2.682  0.0000  0.0000 -0.5722
 1516SOL    HW3 6063   1.286   0.396   2.678  0.0000  0.0000 -0.5853
 1516SOL    MW4 6064   1.360   0.357   2.654  0.0000  0.0000 -0.5714
 1517SOL     OW 6065   1.566   0.482   2.759  0.2322 -0.2181  0.0562
 1517SOL    HW2 6066   1.640   0.436   2.721  0.4859  0.4788 -0.3119
 1517SOL    HW3 6067   1.562   0.565   2.711 -1.4799 -0.7193 -0.6888
 1517SOL    MW4 6068   1.575   0.487   2.748  0.0398 -0.1923 -0.0907
 1518SOL     OW 6069   1.580   0.749   2.633  0.2833  0.2859 -0.1560
 1518SOL    HW2 6070   1.501   0.801   2.647 -0.4641 -0.3796 -1.8126
 1518SOL    HW3 6071   1.578   0.725   2.541  2.2328 -0.0792 -0.1356
 1518SOL    MW4 6072   1.569   0.752   2.623  0.4419  0.1499 -0.3719
 1519SOL     OW 6073   1.346   0.855   2.743 -0.3086 -0.1508  0.1743
 1519SOL    HW2 6074   1.353   0.867   2.838 -1.3177  1.0034  0.1198
 1519SOL    HW3 6075   1.336   0.944   2.709  0.7673 -0.5061 -1.0815
 1519SOL    MW4 6076   1.346   0.868   2.751 -0.2998 -0.0454  0.0014
 1520SOL     OW 6077   1.381   1.110   2.607  0.0127  0.3934  0.2471
 1520SOL    HW2 6078   1.448   1.160   2.653  0.5754  1.1346 -1.3650
 1520SOL    HW3 6079   1.299   1.157   2.624  0.1753  0.5108  0.7044
 1520SOL    MW4 6080   1.379   1.122   2.615  0.1084  0.5067  0.0947
 1521SOL     OW 6081   1.558   1.278   2.725 -0.1578  0.1214  0.0342
 1521SOL    HW2 6082   1.562   1.280   2.820  1.3688  0.9432 -0.0269
 1521SOL    HW3 6083   1.640   1.235   2.699  0.6425  2.1929 -0.9723
 1521SOL    MW4 6084   1.569   1.273   2.734  0.1492  0.5031 -0.1067
 1522SOL     OW 6085   1.588   1.536   2.632 -0.1720  0.2797 -0.0895
 1522SOL    HW2 6086   1.583   1.452   2.678  1.2775 -0.7786 -1.8189
 1522SOL    HW3 6087   1.563   1.516   2.542 -0.3491  1.8211 -0.3966
 1522SOL    MW4 6088   1.584   1.522   2.626 -0.0041  0.3434 -0.3582
 1523SOL     OW 6089   1.372   1.674   2.755 -0.1007 -0.2110  0.4720
 1523SOL    HW2 6090   1.450   1.637   2.714 -0.4379 -1.0993  0.6104
 1523SOL    HW3 6091   1.301   1.615   2.729 -0.6853  0.4530  0.5415
 1523SOL    MW4 6092   1.373   1.661   2.747 -0.2223 -0.2406  0.4995
 1524SOL     OW 6093   1.366   1.963   2.617 -0.3149 -0.1151  0.0560
 1524SOL    HW2 6094   1.376   1.870   2.638 -1.1301 -0.1884  0.1623
 1524SOL    HW3 6095   1.342   1.963   2.524  0.6495  0.0449 -0.1885
 1524SOL    MW4 6096   1.364   1.950   2.607 -0.2952 -0.1037  0.0377
 1525SOL     OW 6097   1.575   2.054   2.757  0.1008  0.0404  0.1360
 1525SOL    HW2 6098   1.658   2.023   2.722  1.0033  1.1894  1.2278
 1525SOL    HW3 6099   1.508   2.013   2.702  1.4194 -0.2205 -1.2678
 1525SOL    MW4 6100   1.577   2.045   2.745  0.3938  0.1576  0.0948
 1526SOL     OW 6101   1.611   2.302   2.630  0.2774 -0.0279 -0.7060
 1526SOL    HW2 6102   1.697   2.340   2.647 -0.6279  1.5304  0.5807
 1526SOL    HW3 6103   1.610   2.222   2.682  0.5513  0.5197  0.1592
 1526SOL    MW4 6104   1.622   2.296   2.639  0.1941  0.2499 -0.4221
 1527SOL     OW 6105   1.370   2.402   2.722  0.0316  0.1813 -0.1639
 1527SOL    HW2 6106   1.360   2.488   2.680  1.7457 -0.2463 -1.5164
 1527SOL    HW3 6107   1.455   2.371   2.692 -1.4898 -2.9505 -1.4701
 1527SOL    MW4 6108   1.380   2.409   2.712  0.0570 -0.2883 -0.5147
 1528SOL     OW 6109   1.374   2.672   2.644 -0.0286 -0.1484 -0.1916
 1528SOL    HW2 6110   1.458   2.716   2.659  0.1679 -0.8574  0.8939
 1528SOL    HW3 6111   1.356   2.684   2.551  0.9109  0.6603 -0.2686
 1528SOL    MW4 6112   1.383   2.679   2.634  0.1213 -0.1352 -0.0585
 1529SOL     OW 6113   1.598   2.815   2.732  0.0311  0.4009 -0.1418
 1529SOL    HW2 6114   1.599   2.824   2.828 -0.5843 -0.6795 -0.0192
 1529SOL    HW3 6115   1.680   2.770   2.712  0.7049  1.6440 -0.2509
 1529SOL    MW4 6116   1.609   2.810   2.742  0.0388  0.4224 -0.1400
 1530SOL     OW 6117   1.590   3.076   2.643 -0.3301  0.0226 -0.1134
 1530SOL    HW2 6118   1.676   3.116   2.659  0.1230 -1.1845  0.6113
 1530SOL    HW3 6119   1.598   2.988   2.682 -1.2433 -0.8139 -1.7729
 1530SOL    MW4 6120   1.603   3.070   2.650 -0.3908 -0.2471 -0.2367
 1531SOL     OW 6121   1.377   3.238   2.758  0.1216  0.0005  0.0754
 1531SOL    HW2 6122   1.453   3.191   2.724 -0.4536 -0.3178 -0.8187
 1531SOL    HW3 6123   1.302   3.195   2.715 -0.4523  1.2821 -0.2171
 1531SOL    MW4 6124   1.377   3.226   2.748 -0.0300  0.1276 -0.0811
 1532SOL     OW 6125   1.352   3.506   2.662  0.4036 -0.5929  0.1047
 1532SOL    HW2 6126   1.351   3.415   2.691  0.4240  0.6512  4.3144
 1532SOL    HW3 6127   1.275   3.546   2.703  1.5185  1.7489  0.0177
 1532SOL    MW4 6128   1.342   3.499   2.671  0.5534 -0.1198  0.6486
 1533SOL     OW 6129   1.595   3.635   2.774 -0.0551  0.1749 -0.2923
 1533SOL    HW2 6130   1.667   3.600   2.721  0.1841  0.4358 -0.1353
 1533SOL    HW3 6131   1.522   3.575   2.756  0.6783 -1.0877  0.8811
 1533SOL    MW4 6132   1.595   3.623   2.764  0.0732  0.0428 -0.1168
 1534SOL     OW 6133   1.589   3.898   2.653 -0.3754  0.3807 -0.2624
 1534SOL    HW2 6134   1.504   3.927   2.687 -0.1517 -0.4138  1.0265
 1534SOL    HW3 6135   1.600   3.810   2.690  0.6586  0.1694 -1.0608
 1534SOL    MW4 6136   1.579   3.890   2.662 -0.2095  0.2480 -0.1976
 1535SOL     OW 6137   1.341   3.995   2.761  0.0134  0.0238 -0.4435
 1535SOL    HW2 6138   1.345   4.009   2.855 -0.3555  0.7517 -0.5346
 1535SOL    HW3 6139   1.367   4.078   2.722  0.0850 -0.2441 -0.9871
 1535SOL    MW4 6140   1.345   4.008   2.768 -0.0258  0.0845 -0.5272
 1536SOL     OW 6141   1.372   4.236   2.663 -0.3412 -0.1577 -0.1445
 1536SOL    HW2 6142   1.290   4.273   2.697 -0.2972  0.1277 -0.3470
 1536SOL    HW3 6143   1.352   4.214   2.572 -0.3569 -0.6048 -0.0321
 1536SOL    MW4 6144   1.358   4.238   2.655 -0.3375 -0.1790 -0.1564
 1537SOL     OW 6145   1.595   4.387   2.746 -0.2976  0.5536 -0.2841
 1537SOL    HW2 6146   1.601   4.391   2.841  0.6499  0.8044 -0.3520
 1537SOL    HW3 6147   1.518   4.332   2.729  0.3546 -0.6488  0.6166
 1537SOL    MW4 6148   1.585   4.380   2.756 -0.0866  0.4280 -0.1742
 1538SOL     OW 6149   2.003   0.039   2.664 -0.0065  0.2838 -0.6196
 1538SOL    HW2 6150   2.072   0.097   2.696 -0.7696  1.4555 -1.0473
 1538SOL    HW3 6151   2.021   0.028   2.571 -0.3636  0.5644 -0.7254
 1538SOL    MW4 6152   2.014   0.045   2.656 -0.1543  0.4755 -0.6900
 1539SOL     OW 6153   1.774   0.129   2.787 -0.8750  0.5168 -0.2260
 1539SOL    HW2 6154   1.858   0.094   2.758 -1.5359 -2.4116  1.2659
 1539SOL    HW3 6155   1.709   0.066   2.757 -2.3360  1.5950  0.5872
 1539SOL    MW4 6156   1.777   0.116   2.779 -1.1550  0.2727  0.0781
 1540SOL     OW 6157   1.758   0.348   2.621  0.3036 -0.5937 -0.4181
 1540SOL    HW2 6158   1.840   0.396   2.626 -0.6238  0.8521  1.5108
 1540SOL    HW3 6159   1.771   0.272   2.678 -0.0877  0.2362  0.7790
 1540SOL    MW4 6160   1.770   0.344   2.629  0.1296 -0.2934 -0.0056
 1541SOL     OW 6161   1.971   0.473   2.712  0.4339 -0.2354 -0.2417
 1541SOL    HW2 6162   2.064   0.451   2.706  0.3006 -0.7117 -0.6091
 1541SOL    HW3 6163   1.968   0.567   2.693  0.5835 -0.7052 -2.8411
 1541SOL    MW4 6164   1.983   0.483   2.709  0.4361 -0.3602 -0.6331
 1542SOL     OW 6165   2.040   0.737   2.695 -0.3920 -0.0548  0.0429
 1542SOL    HW2 6166   1.962   0.785   2.723  0.0957  1.8709 -1.7887
 1542SOL    HW3 6167   2.038   0.741   2.599  1.0359 -1.5172 -0.0764
 1542SOL    MW4 6168   2.030   0.744   2.686 -0.1392  0.0063 -0.2145
 1543SOL     OW 6169   1.796   0.899   2.718 -0.0466  0.1377 -0.1569
 1543SOL    HW2 6170   1.767   0.983   2.683  0.2711  0.5160  0.4853
 1543SOL    HW3 6171   1.740   0.835   2.675 -0.0948  0.6562 -0.8654
 1543SOL    MW4 6172   1.785   0.902   2.708 -0.0110  0.2560 -0.1657
 1544SOL     OW 6173   1.796   1.167   2.629  0.8067 -0.2376  0.2306
 1544SOL    HW2 6174   1.883   1.197   2.652  0.7630 -0.4920  0.7390
 1544SOL    HW3 6175   1.796   1.164   2.533  1.1866  0.2497  0.2139
 1544SOL    MW4 6176   1.807   1.171   2.619  0.8511 -0.2068  0.2954
 1545SOL     OW 6177   2.031   1.283   2.703  0.5328  0.0512 -0.2055
 1545SOL    HW2 6178   2.036   1.289   2.799  0.3949 -0.9019 -0.1343
 1545SOL    HW3 6179   2.101   1.223   2.679  2.1128  2.1160 -0.9215
 1545SOL    MW4 6180   2.041   1.276   2.713  0.7231  0.1979 -0.2905
 1546SOL     OW 6181   2.035   1.546   2.643 -0.2637  0.3518 -0.4084
 1546SOL    HW2 6182   1.944   1.570   2.661  0.1071 -0.0284  2.2383
 1546SOL    HW3 6183   2.042   1.456   2.676  1.3713  0.8278  0.5958
 1546SOL    MW4 6184   2.024   1.538   2.650  0.0010  0.3644  0.0733
 1547SOL     OW 6185   1.798   1.673   2.730 -0.1840  0.3581 -0.1942
 1547SOL    HW2 6186   1.789   1.679   2.825  0.4456  1.0951 -0.1798
 1547SOL    HW3 6187   1.720   1.625   2.702 -0.7761  0.8396  0.6061
 1547SOL    MW4 6188   1.787   1.667   2.739 -0.1791  0.5189 -0.0867
 1548SOL     OW 6189   1.801   1.939   2.677  0.1929  0.6991  0.0878
 1548SOL    HW2 6190   1.879   1.974   2.719 -0.2677  0.8544  0.8307
 1548SOL    HW3 6191   1.804   1.845   2.696 -0.2409  0.8349  0.8524
 1548SOL    MW4 6192   1.811   1.931   2.685  0.0749  0.7375  0.2867
 1549SOL     OW 6193   2.036   2.057   2.756 -0.4400  0.5990 -0.3150
 1549SOL    HW2 6194   2.030   2.069   2.851  0.8950 -1.3112  0.0486
 1549SOL    HW3 6195   2.048   2.145   2.720 -0.7428  1.3077  1.3057
 1549SOL    MW4 6196   2.036   2.070   2.764 -0.3038  0.4405 -0.0532
 1550SOL     OW 6197   2.092   2.295   2.648 -0.3207  0.8102  0.4508
 1550SOL    HW2 6198   2.169   2.342   2.680  0.6951 -0.9874  0.6452
 1550SOL    HW3 6199   2.086   2.320   2.555  0.6262  0.7674  0.3738
 1550SOL    MW4 6200   2.101   2.305   2.640 -0.0617  0.5674  0.4663
 1551SOL     OW 6201   1.848   2.417   2.742  0.8114  0.1736 -0.2028
 1551SOL    HW2 6202   1.829   2.432   2.834  0.0513 -2.2146  0.0615
 1551SOL    HW3 6203   1.934   2.373   2.742  0.9907  0.5218 -0.6450
 1551SOL    MW4 6204   1.857   2.413   2.754  0.7348 -0.0956 -0.2263
 1552SOL     OW 6205   1.834   2.688   2.653 -0.7168 -0.1009  0.1549
 1552SOL    HW2 6206   1.832   2.596   2.680  0.0659 -0.1496  0.0843
 1552SOL    HW3 6207   1.822   2.685   2.558  1.9735 -0.3601 -0.2409
 1552SOL    MW4 6208   1.832   2.675   2.644 -0.2586 -0.1415  0.0933
 1553SOL     OW 6209   2.009   2.866   2.759 -0.1312  0.0843  0.3530
 1553SOL    HW2 6210   2.082   2.807   2.740 -0.6489 -0.4286 -0.0908
 1553SOL    HW3 6211   1.931   2.811   2.746 -0.6143  0.8770 -0.1222
 1553SOL    MW4 6212   2.008   2.851   2.755 -0.2632  0.1212  0.2318
 1554SOL     OW 6213   1.995   3.101   2.620  0.3843 -0.6845  0.0737
 1554SOL    HW2 6214   2.007   3.014   2.658  0.6527 -1.0800 -0.8823
 1554SOL    HW3 6215   2.013   3.089   2.527  0.7785  0.4670 -0.0163
 1554SOL    MW4 6216   1.999   3.088   2.613  0.4717 -0.5848 -0.0643
 1555SOL     OW 6217   1.803   3.245   2.718 -0.3290 -0.2098  0.3042
 1555SOL    HW2 6218   1.833   3.334   2.700 -0.6925 -0.0638  0.4168
 1555SOL    HW3 6219   1.874   3.189   2.686  0.5839  0.1690  1.6536
 1555SOL    MW4 6220   1.816   3.249   2.711 -0.2565 -0.1405  0.4971
 1556SOL     OW 6221   1.798   3.522   2.630  0.0219  0.4335 -0.1230
 1556SOL    HW2 6222   1.877   3.565   2.663  0.5827 -1.0845  0.5557
 1556SOL    HW3 6223   1.815   3.510   2.536  0.8715 -0.4416  0.1322
 1556SOL    MW4 6224   1.810   3.526   2.622  0.2080  0.1178  0.0002
 1557SOL     OW 6225   2.032   3.639   2.729 -0.1089  0.3321 -0.6815
 1557SOL    HW2 6226   2.031   3.655   2.823 -0.1466 -0.5805 -0.5215
 1557SOL    HW3 6227   2.117   3.598   2.713 -0.2774  0.0916 -0.9746
 1557SOL    MW4 6228   2.043   3.636   2.739 -0.1361  0.1799 -0.6991
 1558SOL     OW 6229   2.033   3.905   2.644  0.5560  0.2785 -0.0307
 1558SOL    HW2 6230   1.964   3.934   2.703 -0.5504 -2.1051 -0.1010
 1558SOL    HW3 6231   2.053   3.815   2.673 -0.0310 -0.9467 -3.2311
 1558SOL    MW4 6232   2.027   3.897   2.656  0.3326 -0.1976 -0.4623
 1559SOL     OW 6233   1.803   4.024   2.755  0.1971  0.1271  0.1773
 1559SOL    HW2 6234   1.817   4.104   2.703  0.8286 -0.6210 -0.8102
 1559SOL    HW3 6235   1.733   3.978   2.709  1.1812 -0.8370 -0.3714
 1559SOL    MW4 6236   1.796   4.029   2.742  0.4103 -0.0988 -0.0254
 1560SOL     OW 6237   1.817   4.285   2.647  0.4270 -0.7094 -0.0402
 1560SOL    HW2 6238   1.733   4.313   2.683  1.1379  1.1531  0.2090
 1560SOL    HW3 6239   1.801   4.282   2.552 -0.7487 -3.2799  0.1979
 1560SOL    MW4 6240   1.804   4.288   2.639  0.3657 -0.8028  0.0241
 1561SOL     OW 6241   2.031   4.450   2.766  0.0419  0.2951 -0.3475
 1561SOL    HW2 6242   1.963   4.392   2.732 -1.1277 -0.2208  2.6630
 1561SOL    HW3 6243   2.015   4.534   2.723 -0.6358 -0.6089 -1.8839
 1561SOL    MW4 6244   2.020   4.454   2.756 -0.2018  0.1077 -0.1530
 1562SOL     OW 6245   2.399   4.626   2.650  0.0230 -0.5358 -0.0988
 1562SOL    HW2 6246   2.472   4.685   2.671 -1.1840  0.9774 -0.1279
 1562SOL    HW3 6247   2.386   4.637   2.556 -1.3110  0.4265  0.1940
 1562SOL    MW4 6248   2.407   4.635   2.640 -0.3122 -0.2092 -0.0640
 1563SOL     OW 6249   2.250   0.162   2.767 -0.3224 -0.8801  0.7041
 1563SOL    HW2 6250   2.242   0.166   2.863  0.2834  0.5571  0.7026
 1563SOL    HW3 6251   2.301   0.083   2.751 -0.9848 -1.4901  1.5263
 1563SOL    MW4 6252   2.256   0.152   2.778 -0.3298 -0.7709  0.8124
 1564SOL     OW 6253   2.244   0.412   2.662  0.2157 -0.4738 -0.0920
 1564SOL    HW2 6254   2.258   0.327   2.704 -0.7718 -0.2673  0.6787
 1564SOL    HW3 6255   2.221   0.391   2.572 -0.0387 -1.0262  0.1027
 1564SOL    MW4 6256   2.243   0.398   2.656  0.0518 -0.5194  0.0354
 1565SOL     OW 6257   2.487   0.520   2.760  0.2937  0.6015  0.1270
 1565SOL    HW2 6258   2.491   0.605   2.716 -0.5254  1.0154  0.8521
 1565SOL    HW3 6259   2.403   0.483   2.733  1.9602 -1.3488 -2.6626
 1565SOL    MW4 6260   2.476   0.527   2.751  0.4055  0.3988 -0.1454
 1566SOL     OW 6261   2.489   0.793   2.649  0.2734 -0.1529  0.8275
 1566SOL    HW2 6262   2.408   0.812   2.695  0.2312 -0.2579  0.7960
 1566SOL    HW3 6263   2.461   0.765   2.561  0.4079  1.3119  0.3092
 1566SOL    MW4 6264   2.475   0.792   2.643  0.2856  0.0265  0.7549
 1567SOL     OW 6265   2.255   0.881   2.766 -0.2895 -0.8263 -0.0273
 1567SOL    HW2 6266   2.260   0.876   2.861 -0.1097 -0.2772 -0.0093
 1567SOL    HW3 6267   2.176   0.832   2.743 -1.6595  1.0671  0.5784
 1567SOL    MW4 6268   2.245   0.874   2.775 -0.4465 -0.5040  0.0550
 1568SOL     OW 6269   2.256   1.129   2.650  0.1639 -0.3803 -0.1496
 1568SOL    HW2 6270   2.251   1.040   2.685 -1.6129 -0.9295 -1.7142
 1568SOL    HW3 6271   2.268   1.117   2.556  0.3881  1.0369 -0.3049
 1568SOL    MW4 6272   2.257   1.115   2.642 -0.0409 -0.2658 -0.3765
 1569SOL     OW 6273   2.487   1.270   2.719 -0.1929  0.6447  0.3794
 1569SOL    HW2 6274   2.569   1.227   2.696  0.7206  2.0567  0.8965
 1569SOL    HW3 6275   2.419   1.218   2.676  1.0868  0.3507 -1.3162
 1569SOL    MW4 6276   2.489   1.258   2.710  0.0964  0.7922  0.2239
 1570SOL     OW 6277   2.497   1.547   2.652 -0.0208 -0.1917  0.0596
 1570SOL    HW2 6278   2.410   1.577   2.677 -0.2411 -0.5999 -0.2072
 1570SOL    HW3 6279   2.497   1.454   2.674 -0.4034 -0.6866 -1.9468
 1570SOL    MW4 6280   2.486   1.539   2.658 -0.1003 -0.3108 -0.2403
 1571SOL     OW 6281   2.266   1.678   2.740  0.1310  0.2505  0.0187
 1571SOL    HW2 6282   2.259   1.764   2.699 -1.5863 -0.2675 -0.8427
 1571SOL    HW3 6283   2.178   1.641   2.732  0.8038 -1.5044  0.5350
 1571SOL    MW4 6284   2.254   1.685   2.733 -0.0068 -0.0494 -0.0269
 1572SOL     OW 6285   2.276   1.953   2.675  0.6325  0.1349  0.8645
 1572SOL    HW2 6286   2.200   2.007   2.693 -0.0686 -0.4714 -0.2351
 1572SOL    HW3 6287   2.282   1.951   2.579  1.1926 -0.9671  0.9124
 1572SOL    MW4 6288   2.267   1.960   2.665  0.6139 -0.0905  0.7257
 1573SOL     OW 6289   2.529   2.067   2.716  0.3146  0.3152 -0.0246
 1573SOL    HW2 6290   2.524   2.161   2.697  0.4812  0.4732  0.6840
 1573SOL    HW3 6291   2.440   2.035   2.702  0.4466  0.4040 -1.1285
 1573SOL    MW4 6292   2.517   2.075   2.711  0.3540  0.3477 -0.0768
 1574SOL     OW 6293   2.511   2.342   2.650 -0.0623 -0.1934 -0.2258
 1574SOL    HW2 6294   2.601   2.369   2.671  0.2728 -1.6517  0.2559
 1574SOL    HW3 6295   2.511   2.334   2.554 -0.0336  0.9875 -0.3407
 1574SOL    MW4 6296   2.523   2.345   2.640 -0.0143 -0.2300 -0.1774
 1575SOL     OW 6297   2.289   2.437   2.769 -0.2766 -0.1818 -0.6077
 1575SOL    HW2 6298   2.302   2.451   2.863  0.4813 -0.8717 -0.6090
 1575SOL    HW3 6299   2.376   2.415   2.736  0.2773  3.9621 -2.2009
 1575SOL    MW4 6300   2.302   2.436   2.777 -0.1035  0.2739 -0.8181
 1576SOL     OW 6301   2.236   2.697   2.719 -0.0874 -0.1693  0.4633
 1576SOL    HW2 6302   2.325   2.725   2.736 -0.2003  0.6841 -0.3010
 1576SOL    HW3 6303   2.237   2.602   2.731  1.2936 -0.3597 -1.1421
 1576SOL    MW4 6304   2.248   2.688   2.723  0.0799 -0.0818  0.1507
 1577SOL     OW 6305   2.480   2.826   2.739  0.5037 -0.5483  0.2945
 1577SOL    HW2 6306   2.565   2.799   2.704  0.3918 -0.7764  0.1888
 1577SOL    HW3 6307   2.462   2.910   2.698  0.1838 -1.0066 -0.5400
 1577SOL    MW4 6308   2.489   2.833   2.729  0.4467 -0.6389  0.1705
 1578SOL     OW 6309   2.478   3.064   2.604  0.4675  0.3206  0.0392
 1578SOL    HW2 6310   2.405   3.111   2.644  0.2877  0.9639 -1.0271
 1578SOL    HW3 6311   2.465   3.075   2.510  0.8372 -1.2494 -0.2074
 1578SOL    MW4 6312   2.467   3.071   2.597  0.4926  0.1983 -0.1340
 1579SOL     OW 6313   2.252   3.227   2.696 -0.0735 -0.2020 -0.3757
 1579SOL    HW2 6314   2.248   3.229   2.792  0.0149 -1.5233 -0.3352
 1579SOL    HW3 6315   2.169   3.186   2.670  0.8706 -1.8861 -0.7659
 1579SOL    MW4 6316   2.240   3.222   2.705  0.0627 -0.5985 -0.4218
 1580SOL     OW 6317   2.258   3.502   2.659  0.3635 -0.2862 -1.0015
 1580SOL    HW2 6318   2.346   3.526   2.687  0.2656 -0.3895 -0.6108
 1580SOL    HW3 6319   2.249   3.410   2.685 -0.0812 -0.1023 -0.5072
 1580SOL    MW4 6320   2.269   3.493   2.666  0.2919 -0.2756 -0.8847
 1581SOL     OW 6321   2.519   3.585   2.693  0.0337  0.0456 -0.1481
 1581SOL    HW2 6322   2.516   3.586   2.789 -0.0516  0.4912 -0.1561
 1581SOL    HW3 6323   2.510   3.677   2.667  1.5938  0.1030 -0.5453
 1581SOL    MW4 6324   2.517   3.597   2.702  0.2283  0.1119 -0.2015
 1582SOL     OW 6325   2.439   3.873   2.652  0.3100  0.0844  0.8757
 1582SOL    HW2 6326   2.518   3.922   2.676  0.5392  0.6686 -1.0635
 1582SOL    HW3 6327   2.367   3.933   2.671  0.5654  1.0549 -1.0831
 1582SOL    MW4 6328   2.440   3.887   2.658  0.3740  0.2895  0.3614
 1583SOL     OW 6329   2.239   4.044   2.763  0.5391 -0.0024  0.1493
 1583SOL    HW2 6330   2.239   4.035   2.858  1.3670  1.3286  0.2964
 1583SOL    HW3 6331   2.157   4.003   2.735 -0.1459  0.3924  1.5144
 1583SOL    MW4 6332   2.228   4.037   2.772  0.5580  0.2253  0.3488
 1584SOL     OW 6333   2.211   4.285   2.644  0.6602 -0.2633 -0.3753
 1584SOL    HW2 6334   2.215   4.203   2.694  0.7217  0.5166  0.9167
 1584SOL    HW3 6335   2.133   4.329   2.678  0.7823  0.3382 -0.8739
 1584SOL    MW4 6336   2.201   4.280   2.655  0.6844 -0.0810 -0.2706
 1585SOL     OW 6337   2.465   4.384   2.749  0.0432  0.1170  0.6066
 1585SOL    HW2 6338   2.384   4.340   2.724  0.5926  0.7830 -2.5770
 1585SOL    HW3 6339   2.450   4.476   2.728  1.5484  0.2613  0.1108
 1585SOL    MW4 6340   2.452   4.390   2.743  0.3143  0.2239  0.1211
 1586SOL     OW 6341   2.866   4.653   2.632  0.0436  0.5290 -0.1784
 1586SOL    HW2 6342   2.936   4.705   2.669  1.1358 -1.3474  0.4721
 1586SOL    HW3 6343   2.883   4.653   2.538  0.4979  0.7029 -0.0957
 1586SOL    MW4 6344   2.877   4.660   2.624  0.2477  0.3044 -0.0817
 1587SOL     OW 6345   2.627   0.104   2.721 -0.5082  0.1842 -0.1072
 1587SOL    HW2 6346   2.636   0.122   2.815 -0.9398  0.8087 -0.1821
 1587SOL    HW3 6347   2.709   0.061   2.697  0.6537  2.2502  0.0416
 1587SOL    MW4 6348   2.639   0.101   2.730 -0.4118  0.5392 -0.0975
 1588SOL     OW 6349   2.679   0.363   2.666 -0.3112  0.2815 -0.5894
 1588SOL    HW2 6350   2.645   0.273   2.670  0.2197 -0.0159 -2.2988
 1588SOL    HW3 6351   2.609   0.417   2.704 -1.3903 -0.6653 -1.1974
 1588SOL    MW4 6352   2.665   0.358   2.671 -0.3835  0.1173 -0.8951
 1589SOL     OW 6353   2.922   0.474   2.708 -0.0472 -0.0644 -0.1161
 1589SOL    HW2 6354   2.912   0.566   2.683  1.6728  0.0129 -0.5969
 1589SOL    HW3 6355   2.840   0.433   2.682  0.1704  0.8116 -2.3307
 1589SOL    MW4 6356   2.910   0.481   2.701  0.2084  0.0614 -0.4717
 1590SOL     OW 6357   2.905   0.731   2.609  0.1085  0.4223 -0.2231
 1590SOL    HW2 6358   2.987   0.767   2.642  0.3097 -1.2973  1.2453
 1590SOL    HW3 6359   2.837   0.785   2.648  0.4908  0.8166 -0.1065
 1590SOL    MW4 6360   2.907   0.743   2.619  0.1855  0.2474 -0.0140
 1591SOL     OW 6361   2.732   0.884   2.741 -0.1649 -0.1458 -0.0375
 1591SOL    HW2 6362   2.738   0.864   2.835  0.4762 -1.2712 -0.3048
 1591SOL    HW3 6363   2.650   0.843   2.713 -0.8953  1.1013  0.2388
 1591SOL    MW4 6364   2.722   0.876   2.750 -0.1767 -0.1297 -0.0363
 1592SOL     OW 6365   2.727   1.127   2.606  0.1758 -0.2910  0.2293
 1592SOL    HW2 6366   2.795   1.173   2.655  1.0884 -1.1012 -0.2619
 1592SOL    HW3 6367   2.718   1.043   2.650  1.4473 -1.2776 -1.3349
 1592SOL    MW4 6368   2.734   1.122   2.618  0.4639 -0.5281 -0.0419
 1593SOL     OW 6369   2.933   1.256   2.729 -0.2444  0.9847 -0.0582
 1593SOL    HW2 6370   2.923   1.271   2.823  0.2772 -0.1014  0.1713
 1593SOL    HW3 6371   3.020   1.218   2.720 -0.6033  0.3582 -0.8960
 1593SOL    MW4 6372   2.943   1.253   2.740 -0.2229  0.7587 -0.1384
 1594SOL     OW 6373   2.952   1.505   2.616 -0.3433  0.1229  0.7142
 1594SOL    HW2 6374   2.881   1.558   2.651 -0.2004 -0.2417  1.5720
 1594SOL    HW3 6375   2.932   1.416   2.643 -0.4719 -0.2480 -0.5416
 1594SOL    MW4 6376   2.940   1.501   2.624 -0.3414  0.0258  0.6617
 1595SOL     OW 6377   2.737   1.662   2.715  0.1647  0.1916  0.4105
 1595SOL    HW2 6378   2.737   1.677   2.810  1.4944 -1.5052  0.7073
 1595SOL    HW3 6379   2.651   1.624   2.697  0.5741 -1.1563  1.2379
 1595SOL    MW4 6380   2.726   1.659   2.725  0.3942 -0.2101  0.5588
 1596SOL     OW 6381   2.734   1.930   2.597  0.2092 -0.0310 -0.2486
 1596SOL    HW2 6382   2.747   1.841   2.629  0.0494  0.6252  1.7725
 1596SOL    HW3 6383   2.660   1.963   2.649 -0.9733  0.6560 -2.2951
 1596SOL    MW4 6384   2.726   1.923   2.608  0.0321  0.1462 -0.2520
 1597SOL     OW 6385   2.944   2.065   2.721 -0.2641 -0.0968  0.1108
 1597SOL    HW2 6386   2.938   2.151   2.681 -0.6798 -0.1926 -0.0327
 1597SOL    HW3 6387   2.878   2.012   2.676 -0.6784 -0.2247  0.8544
 1597SOL    MW4 6388   2.934   2.069   2.710 -0.3736 -0.1263  0.1900
 1598SOL     OW 6389   2.959   2.328   2.619  0.0908 -0.1721 -0.0061
 1598SOL    HW2 6390   3.045   2.355   2.651 -0.2569 -0.5813  1.3041
 1598SOL    HW3 6391   2.897   2.377   2.674 -0.5096  0.7270 -1.4706
 1598SOL    MW4 6392   2.962   2.338   2.631 -0.0343 -0.1074 -0.0265
 1599SOL     OW 6393   2.763   2.447   2.761 -0.5683 -0.0692 -0.5678
 1599SOL    HW2 6394   2.773   2.448   2.856 -1.2708 -1.2826 -0.4780
 1599SOL    HW3 6395   2.764   2.540   2.737  1.3332  0.1959  0.4159
 1599SOL    MW4 6396   2.764   2.460   2.771 -0.4101 -0.1943 -0.4261
 1600SOL     OW 6397   2.701   2.697   2.665  0.0585 -0.4395 -0.4821
 1600SOL    HW2 6398   2.782   2.746   2.676  0.3807 -0.7995 -1.1972
 1600SOL    HW3 6399   2.695   2.681   2.570 -0.8776 -0.3540 -0.4422
 1600SOL    MW4 6400   2.711   2.701   2.654 -0.0225 -0.4757 -0.5712
 1601SOL     OW 6401   2.941   2.809   2.744  0.0940 -0.4230 -0.3602
 1601SOL    HW2 6402   2.954   2.824   2.838  0.3372 -0.5591 -0.3732
 1601SOL    HW3 6403   2.936   2.897   2.707  2.1372 -0.3649 -0.5168
 1601SOL    MW4 6404   2.942   2.823   2.751  0.3957 -0.4333 -0.3826
 1602SOL     OW 6405   2.913   3.068   2.627 -0.5494  0.4900  0.1614
 1602SOL    HW2 6406   2.825   3.092   2.654 -0.2706  2.2115 -0.3753
 1602SOL    HW3 6407   2.907   3.056   2.533 -0.1346  1.0363  0.0600
 1602SOL    MW4 6408   2.901   3.070   2.619 -0.4579  0.7892  0.0772
 1603SOL     OW 6409   2.684   3.180   2.736 -0.1537  0.4540 -0.6636
 1603SOL    HW2 6410   2.714   3.257   2.689 -0.1712  0.5442 -0.5293
 1603SOL    HW3 6411   2.603   3.154   2.692  0.7047 -0.4511 -1.7277
 1603SOL    MW4 6412   2.677   3.187   2.724 -0.0428  0.3465 -0.7863
 1604SOL     OW 6413   2.737   3.450   2.640 -0.4427  0.1903  0.4627
 1604SOL    HW2 6414   2.650   3.485   2.657 -0.7237 -0.0703 -0.4079
 1604SOL    HW3 6415   2.747   3.455   2.545  0.0458 -0.8206  0.4548
 1604SOL    MW4 6416   2.727   3.455   2.630 -0.4153  0.0225  0.3468
 1605SOL     OW 6417   2.931   3.601   2.770 -0.2033 -0.5047 -0.2869
 1605SOL    HW2 6418   2.905   3.606   2.862 -0.4337  1.6163 -0.4412
 1605SOL    HW3 6419   2.875   3.533   2.733 -0.7245 -0.7626  0.9499
 1605SOL    MW4 6420   2.920   3.593   2.777 -0.3025 -0.2589 -0.1441
 1606SOL     OW 6421   2.923   3.853   2.637 -0.8019 -0.4371  0.0911
 1606SOL    HW2 6422   3.005   3.899   2.655 -0.9078  0.0401 -0.6280
 1606SOL    HW3 6423   2.932   3.770   2.684  0.0627 -0.3511  0.0948
 1606SOL    MW4 6424   2.935   3.848   2.646 -0.7018 -0.3628 -0.0033
 1607SOL     OW 6425   2.685   4.000   2.712  0.1826 -0.4548  0.1884
 1607SOL    HW2 6426   2.686   4.091   2.682 -2.4740 -0.7786 -0.9765
 1607SOL    HW3 6427   2.764   3.962   2.675 -0.1729  0.6376 -1.7904
 1607SOL    MW4 6428   2.695   4.007   2.703 -0.2148 -0.3534 -0.2264
 1608SOL     OW 6429   2.671   4.250   2.595  0.0872  0.3623  0.5291
 1608SOL    HW2 6430   2.751   4.293   2.626 -0.2437  0.2465  1.5877
 1608SOL    HW3 6431   2.602   4.286   2.652 -0.1499 -1.7872  1.6340
 1608SOL    MW4 6432   2.673   4.261   2.607  0.0123  0.0634  0.8145
 1609SOL     OW 6433   2.914   4.389   2.683 -0.2010  0.2876  1.1191
 1609SOL    HW2 6434   2.909   4.391   2.779  0.3097  0.4740  1.1416
 1609SOL    HW3 6435   2.895   4.479   2.656  1.1732  0.5942  1.1218
 1609SOL    MW4 6436   2.911   4.401   2.692  0.0477  0.3527  1.1224
 1610SOL     OW 6437   3.314   0.031   2.645  0.4727  0.3354  0.2406
 1610SOL    HW2 6438   3.327  -0.050   2.693 -0.3987 -0.8254 -1.4471
 1610SOL    HW3 6439   3.236   0.070   2.684 -0.0772 -0.4679 -0.0515
 1610SOL    MW4 6440   3.305   0.026   2.657  0.2852  0.0763 -0.0206
 1611SOL     OW 6441   3.072   0.135   2.735  0.3980  0.2928  0.1307
 1611SOL    HW2 6442   3.077   0.151   2.829  1.6445 -0.1489  0.1409
 1611SOL    HW3 6443   3.102   0.217   2.695  1.3220 -0.0436  0.1324
 1611SOL    MW4 6444   3.076   0.148   2.742  0.6844  0.1902  0.1322
 1612SOL     OW 6445   3.171   0.372   2.628 -0.8136  0.1428  0.2047
 1612SOL    HW2 6446   3.085   0.405   2.656 -1.2001 -0.6377 -0.0472
 1612SOL    HW3 6447   3.162   0.358   2.534 -0.2126  0.6468  0.0740
 1612SOL    MW4 6448   3.158   0.374   2.619 -0.7853  0.1063  0.1542
 1613SOL     OW 6449   3.394   0.502   2.748 -0.2628  0.4237 -0.2413
 1613SOL    HW2 6450   3.373   0.587   2.710 -0.3861 -0.4497 -2.2038
 1613SOL    HW3 6451   3.326   0.443   2.714  0.4152 -0.6623  0.2522
 1613SOL    MW4 6452   3.382   0.506   2.739 -0.1896  0.1652 -0.4351
 1614SOL     OW 6453   3.404   0.743   2.637 -0.1550 -0.4744 -0.0698
 1614SOL    HW2 6454   3.484   0.785   2.668 -0.4727 -0.3364  0.5719
 1614SOL    HW3 6455   3.409   0.749   2.541  1.9377 -2.9422 -0.1572
 1614SOL    MW4 6456   3.415   0.749   2.628  0.0792 -0.7818  0.0033
 1615SOL     OW 6457   3.123   0.853   2.702  0.5301  0.4540  0.1384
 1615SOL    HW2 6458   3.147   0.872   2.793  0.8377  0.3744  0.0739
 1615SOL    HW3 6459   3.201   0.812   2.665 -0.2611 -1.3660  0.4017
 1615SOL    MW4 6460   3.136   0.850   2.709  0.4663  0.2034  0.1646
 1616SOL     OW 6461   3.149   1.121   2.631  0.4077  0.5797  0.2637
 1616SOL    HW2 6462   3.128   1.028   2.636 -0.0311  0.7383  1.5926
 1616SOL    HW3 6463   3.142   1.142   2.538  0.3982 -0.6887 -0.0282
 1616SOL    MW4 6464   3.145   1.111   2.620  0.3485  0.4333  0.4005
 1617SOL     OW 6465   3.384   1.255   2.698  0.3402 -0.3364 -0.0961
 1617SOL    HW2 6466   3.367   1.263   2.792  0.3980  1.1804 -0.2063
 1617SOL    HW3 6467   3.311   1.203   2.664  0.7525 -1.6149  0.9060
 1617SOL    MW4 6468   3.372   1.249   2.706  0.4023 -0.3050  0.0216
 1618SOL     OW 6469   3.382   1.527   2.658  0.2775  0.2826 -0.1557
 1618SOL    HW2 6470   3.309   1.567   2.705  0.5615  3.0414 -1.9639
 1618SOL    HW3 6471   3.360   1.434   2.656 -2.1724  0.7784  1.1064
 1618SOL    MW4 6472   3.369   1.520   2.664 -0.0082  0.7120 -0.2278
 1619SOL     OW 6473   3.142   1.663   2.744 -0.1439  0.1933 -0.2116
 1619SOL    HW2 6474   3.167   1.750   2.713 -1.0059  0.8948  1.0323
 1619SOL    HW3 6475   3.095   1.624   2.670  1.5092  0.2041 -1.3031
 1619SOL    MW4 6476   3.139   1.669   2.730 -0.0396  0.2873 -0.1915
 1620SOL     OW 6477   3.163   1.912   2.639 -0.0126  0.7340 -0.1986
 1620SOL    HW2 6478   3.234   1.959   2.681 -0.3335 -1.5183  2.9914
 1620SOL    HW3 6479   3.085   1.965   2.657  0.2826  1.2753 -0.4949
 1620SOL    MW4 6480   3.162   1.925   2.647 -0.0160  0.5083  0.1832
 1621SOL     OW 6481   3.380   2.018   2.748 -0.0581  0.1023  0.5606
 1621SOL    HW2 6482   3.381   2.026   2.844 -0.6902  0.7762  0.5171
 1621SOL    HW3 6483   3.385   2.109   2.717 -1.0709 -0.0393 -0.0271
 1621SOL    MW4 6484   3.381   2.031   2.757 -0.2751  0.1725  0.4773
 1622SOL     OW 6485   3.387   2.273   2.611  0.0399 -0.4501  0.5492
 1622SOL    HW2 6486   3.462   2.316   2.653 -2.3901  2.4269  2.1050
 1622SOL    HW3 6487   3.389   2.304   2.521 -0.2847  1.0772  1.0486
 1622SOL    MW4 6488   3.397   2.283   2.605 -0.3236  0.1310  0.8204
 1623SOL     OW 6489   3.210   2.407   2.762 -0.1401  0.4338 -0.3015
 1623SOL    HW2 6490   3.212   2.500   2.739 -1.5763  0.3998 -0.5854
 1623SOL    HW3 6491   3.258   2.363   2.692 -2.1257  0.6301 -1.8161
 1623SOL    MW4 6492   3.216   2.414   2.750 -0.5915  0.4552 -0.5388
 1624SOL     OW 6493   3.145   2.666   2.614  0.1882  0.1655  0.7528
 1624SOL    HW2 6494   3.217   2.718   2.650 -1.3238  2.4361  0.6079
 1624SOL    HW3 6495   3.066   2.703   2.655 -1.0498 -0.9826 -0.5542
 1624SOL    MW4 6496   3.144   2.678   2.624 -0.1746  0.3136  0.5612
 1625SOL     OW 6497   3.366   2.827   2.712  0.1278  0.5611  0.0469
 1625SOL    HW2 6498   3.389   2.855   2.801 -1.4720 -0.4840  0.8226
 1625SOL    HW3 6499   3.429   2.759   2.690  0.1434  0.3776  0.6504
 1625SOL    MW4 6500   3.377   2.822   2.721 -0.0812  0.3990  0.2289
 1626SOL     OW 6501   3.369   3.081   2.581  0.3557  0.0557  0.2007
 1626SOL    HW2 6502   3.363   2.989   2.606 -2.5522  0.2975  0.5639
 1626SOL    HW3 6503   3.366   3.080   2.485  1.4479 -0.2823  0.1655
 1626SOL    MW4 6504   3.368   3.069   2.572  0.1162  0.0430  0.2440
 1627SOL     OW 6505   3.143   3.224   2.697  0.0081 -0.2002  0.4819
 1627SOL    HW2 6506   3.208   3.164   2.661  0.6784 -0.5716  2.2956
 1627SOL    HW3 6507   3.059   3.186   2.673  0.4336 -1.3068  0.7340
 1627SOL    MW4 6508   3.141   3.211   2.689  0.1527 -0.3952  0.7545
 1628SOL     OW 6509   3.149   3.503   2.659 -0.1773  0.3803 -0.1397
 1628SOL    HW2 6510   3.150   3.411   2.684  1.2727  0.3700 -0.1885
 1628SOL    HW3 6511   3.079   3.541   2.712 -1.7689 -1.0201 -1.1900
 1628SOL    MW4 6512   3.140   3.496   2.670 -0.1960  0.1942 -0.2847
 1629SOL     OW 6513   3.378   3.642   2.717  0.3752 -0.1638 -0.3561
 1629SOL    HW2 6514   3.398   3.619   2.807 -0.2247  0.3038 -0.1010
 1629SOL    HW3 6515   3.298   3.594   2.697 -1.3185  2.2667  0.4334
 1629SOL    MW4 6516   3.370   3.632   2.726  0.0726  0.2185 -0.2183
 1630SOL     OW 6517   3.413   3.909   2.647 -0.3235 -0.4562  0.3781
 1630SOL    HW2 6518   3.422   3.817   2.674 -1.7854 -0.7478 -0.0357
 1630SOL    HW3 6519   3.368   3.904   2.562 -0.0032  0.6246  0.1388
 1630SOL    MW4 6520   3.408   3.896   2.639 -0.4741 -0.3521  0.2919
 1631SOL     OW 6521   3.150   3.989   2.717  0.5000 -0.2763 -0.2980
 1631SOL    HW2 6522   3.157   4.079   2.684 -1.1022 -0.5244 -1.3603
 1631SOL    HW3 6523   3.238   3.954   2.709  1.3983  1.5332  1.1193
 1631SOL    MW4 6524   3.162   3.996   2.712  0.4072 -0.0703 -0.2512
 1632SOL     OW 6525   3.155   4.247   2.600 -0.2229  0.0142  0.0039
 1632SOL    HW2 6526   3.070   4.276   2.633 -0.7523 -0.7225 -0.6851
 1632SOL    HW3 6527   3.149   4.258   2.505  0.2688 -0.4971 -0.0905
 1632SOL    MW4 6528   3.143   4.252   2.592 -0.2279 -0.1505 -0.0995
 1633SOL     OW 6529   3.335   4.422   2.710 -0.0827 -0.7004  0.0111
 1633SOL    HW2 6530   3.338   4.393   2.802  0.1766 -1.3765 -0.2086
 1633SOL    HW3 6531   3.280   4.357   2.666 -2.2338  0.9793  0.1597
 1633SOL    MW4 6532   3.328   4.409   2.717 -0.3323 -0.5680  0.0017
 1634SOL     OW 6533   3.832   0.037   2.627 -0.0993  0.1977  0.2462
 1634SOL    HW2 6534   3.846  -0.048   2.669 -0.0735 -0.2622 -0.6660
 1634SOL    HW3 6535   3.740   0.057   2.643  0.1016  0.3896  1.1681
 1634SOL    MW4 6536   3.822   0.028   2.634 -0.0694  0.1624  0.2475
 1635SOL     OW 6537   3.576   0.137   2.691 -0.3613 -0.1328  0.2017
 1635SOL    HW2 6538   3.557   0.230   2.678  0.6212  0.2066  1.1351
 1635SOL    HW3 6539   3.491   0.094   2.688 -0.9217  0.9258  0.7472
 1635SOL    MW4 6540   3.563   0.143   2.689 -0.3056  0.0516  0.3968
 1636SOL     OW 6541   3.592   0.402   2.586  0.0202 -0.2790  0.1613
 1636SOL    HW2 6542   3.670   0.417   2.640 -0.2017  0.6520  0.2341
 1636SOL    HW3 6543   3.526   0.460   2.624 -1.6799 -3.3393  2.1318
 1636SOL    MW4 6544   3.594   0.412   2.598 -0.2334 -0.5599  0.4309
 1637SOL     OW 6545   3.807   0.491   2.730 -0.3725  0.4138 -0.3941
 1637SOL    HW2 6546   3.804   0.483   2.825 -1.2613  0.8172 -0.3751
 1637SOL    HW3 6547   3.892   0.455   2.704 -0.3870 -0.2623  0.4938
 1637SOL    MW4 6548   3.817   0.485   2.739 -0.4916  0.3778 -0.2745
 1638SOL     OW 6549   3.868   0.744   2.634 -0.4922 -0.0864  0.3371
 1638SOL    HW2 6550   3.788   0.793   2.653 -0.3902 -0.0351  0.6315
 1638SOL    HW3 6551   3.850   0.656   2.666 -0.4675 -0.1002  0.3128
 1638SOL    MW4 6552   3.855   0.739   2.640 -0.4755 -0.0815  0.3727
 1639SOL     OW 6553   3.627   0.887   2.688  0.0076 -0.3423  0.3137
 1639SOL    HW2 6554   3.619   0.898   2.783 -1.3020 -0.7212  0.2602
 1639SOL    HW3 6555   3.635   0.976   2.654 -0.0133 -0.1753  0.7388
 1639SOL    MW4 6556   3.627   0.900   2.696 -0.1679 -0.3703  0.3627
 1640SOL     OW 6557   3.645   1.151   2.600  0.5278 -0.2566 -0.3004
 1640SOL    HW2 6558   3.711   1.198   2.651 -1.4818 -0.2661  2.3802
 1640SOL    HW3 6559   3.562   1.176   2.639 -0.9209 -2.1650 -2.0585
 1640SOL    MW4 6560   3.643   1.161   2.612  0.0715 -0.5096 -0.1787
 1641SOL     OW 6561   3.820   1.255   2.788 -0.1051  0.2111  0.5955
 1641SOL    HW2 6562   3.906   1.234   2.751  0.2887  0.9285  1.0836
 1641SOL    HW3 6563   3.800   1.343   2.755  0.1653  0.7824  1.9033
 1641SOL    MW4 6564   3.829   1.264   2.779 -0.0174  0.3812  0.8324
 1642SOL     OW 6565   3.792   1.494   2.662 -0.1852 -0.4627 -0.3633
 1642SOL    HW2 6566   3.872   1.536   2.692 -0.5354  0.3664 -0.5739
 1642SOL    HW3 6567   3.722   1.555   2.687 -0.6392 -0.6082 -1.2580
 1642SOL    MW4 6568   3.793   1.507   2.670 -0.2913 -0.3725 -0.5091
 1643SOL     OW 6569   3.597   1.630   2.799  0.3288  0.1392  0.4004
 1643SOL    HW2 6570   3.600   1.721   2.769 -1.9642  0.3214  0.6672
 1643SOL    HW3 6571   3.529   1.589   2.746 -0.0063 -0.9244  1.6255
 1643SOL    MW4 6572   3.589   1.636   2.788 -0.0180  0.0229  0.5972
 1644SOL     OW 6573   3.611   1.888   2.656  0.0398  0.0245 -0.4433
 1644SOL    HW2 6574   3.536   1.930   2.696  1.2866  3.1197 -1.2069
 1644SOL    HW3 6575   3.593   1.890   2.562  0.6618 -0.0366 -0.5713
 1644SOL    MW4 6576   3.599   1.894   2.648  0.2863  0.4248 -0.5609
 1645SOL     OW 6577   3.822   2.043   2.772  0.6291 -0.3287  0.5707
 1645SOL    HW2 6578   3.894   2.008   2.720  0.4333 -0.0700  0.1243
 1645SOL    HW3 6579   3.743   2.000   2.737  0.2636  1.3403 -0.6922
 1645SOL    MW4 6580   3.821   2.033   2.761  0.5551 -0.0744  0.3452
 1646SOL     OW 6581   3.827   2.292   2.611  0.1119 -0.0896 -0.0032
 1646SOL    HW2 6582   3.837   2.215   2.667  0.9025  0.4496  0.6107
 1646SOL    HW3 6583   3.817   2.256   2.522  0.6270 -0.8855  0.2548
 1646SOL    MW4 6584   3.827   2.277   2.607  0.2842 -0.1235  0.1119
 1647SOL     OW 6585   3.607   2.410   2.714 -0.1650  0.2155  0.2649
 1647SOL    HW2 6586   3.631   2.423   2.806 -0.5809  0.8686  0.2814
 1647SOL    HW3 6587   3.686   2.374   2.674  0.6045  1.6124  0.4900
 1647SOL    MW4 6588   3.621   2.407   2.721 -0.1184  0.4860  0.2968
 1648SOL     OW 6589   3.586   2.683   2.602 -0.1125  0.5667  0.3749
 1648SOL    HW2 6590   3.599   2.588   2.603  0.1230  0.5696 -1.4088
 1648SOL    HW3 6591   3.596   2.708   2.510 -2.5599  1.9939  0.4486
 1648SOL    MW4 6592   3.589   2.674   2.590 -0.4044  0.7553  0.1493
 1649SOL     OW 6593   3.806   2.836   2.755 -0.2675 -0.5372  0.1251
 1649SOL    HW2 6594   3.876   2.797   2.703 -1.1088  0.2036 -1.6174
 1649SOL    HW3 6595   3.726   2.792   2.725 -0.7244 -0.3937  1.1039
 1649SOL    MW4 6596   3.804   2.825   2.744 -0.4388 -0.4205  0.0243
 1650SOL     OW 6597   3.786   3.130   2.627  0.2243  0.3785 -0.7562
 1650SOL    HW2 6598   3.709   3.178   2.656 -0.5172 -0.6661 -1.0019
 1650SOL    HW3 6599   3.775   3.042   2.664  1.6561  0.4249 -0.1685
 1650SOL    MW4 6600   3.775   3.125   2.636  0.3154  0.2468 -0.7111
 1651SOL     OW 6601   3.564   3.249   2.711 -0.1380  0.0255  0.3918
 1651SOL    HW2 6602   3.555   3.338   2.676 -1.7647 -0.0516  0.5500
 1651SOL    HW3 6603   3.503   3.197   2.659  0.7873 -0.9969  0.3285
 1651SOL    MW4 6604   3.555   3.254   2.700 -0.2305 -0.1195  0.4043
 1652SOL     OW 6605   3.601   3.507   2.617  0.2505 -0.1399 -0.6950
 1652SOL    HW2 6606   3.662   3.557   2.670 -0.1771 -0.3653  0.0197
 1652SOL    HW3 6607   3.515   3.546   2.635 -0.2899 -1.9750  0.9288
 1652SOL    MW4 6608   3.598   3.518   2.626  0.1228 -0.4118 -0.3864
 1653SOL     OW 6609   3.799   3.654   2.724 -0.3852  0.3064 -0.0380
 1653SOL    HW2 6610   3.877   3.608   2.692 -1.4485  0.0962 -2.4623
 1653SOL    HW3 6611   3.813   3.745   2.698 -0.6134  0.4009  0.1711
 1653SOL    MW4 6612   3.811   3.660   2.717 -0.5556  0.2911 -0.3302
 1654SOL     OW 6613   3.835   3.929   2.668 -0.1982  0.3045 -0.0944
 1654SOL    HW2 6614   3.908   3.980   2.703 -0.1424  0.7676 -0.8661
 1654SOL    HW3 6615   3.757   3.980   2.690 -0.1863  0.4496 -0.3879
 1654SOL    MW4 6616   3.834   3.942   2.675 -0.1893  0.3848 -0.2349
 1655SOL     OW 6617   3.609   4.077   2.741  0.2210 -0.5351  0.0993
 1655SOL    HW2 6618   3.611   4.162   2.698 -0.7270 -0.3559  0.4130
 1655SOL    HW3 6619   3.547   4.025   2.690 -0.0210 -0.6963  0.5605
 1655SOL    MW4 6620   3.601   4.081   2.728  0.0640 -0.5327  0.2015
 1656SOL     OW 6621   3.577   4.339   2.611 -0.2664 -0.0844  0.2425
 1656SOL    HW2 6622   3.491   4.372   2.638 -1.0201 -0.6973 -1.4012
 1656SOL    HW3 6623   3.566   4.314   2.520  1.6141 -0.3630  0.0749
 1656SOL    MW4 6624   3.564   4.340   2.603 -0.1178 -0.2020  0.0035
 1657SOL     OW 6625   3.821   4.436   2.763  0.0240  0.0093 -0.3595
 1657SOL    HW2 6626   3.901   4.408   2.719  0.1994  0.1852 -0.1485
 1657SOL    HW3 6627   3.751   4.409   2.704  0.2488  0.0413 -0.6400
 1657SOL    MW4 6628   3.822   4.428   2.749  0.0768  0.0367 -0.3687
 1658SOL     OW 6629   4.304   4.661   2.653  0.0754 -0.1816  0.6985
 1658SOL    HW2 6630   4.229   4.715   2.678 -0.2448 -0.2326 -0.1440
 1658SOL    HW3 6631   4.378   4.698   2.702 -0.3144  0.4546  0.8022
 1658SOL    MW4 6632   4.304   4.673   2.663 -0.0182 -0.1044  0.6010
 1659SOL     OW 6633   4.066   0.129   2.733  0.0427  0.1036  0.5919
 1659SOL    HW2 6634   4.078   0.120   2.828  0.4327 -0.1995  0.5129
 1659SOL    HW3 6635   3.976   0.102   2.718 -0.1057  0.4156  0.9151
 1659SOL    MW4 6636   4.056   0.124   2.744  0.0746  0.1048  0.6241
 1660SOL     OW 6637   4.052   0.401   2.633 -0.1422  0.1686  0.7769
 1660SOL    HW2 6638   4.054   0.312   2.667 -2.8475  0.7041  2.5236
 1660SOL    HW3 6639   4.069   0.391   2.539 -0.6265 -2.2209  0.9050
 1660SOL    MW4 6640   4.054   0.388   2.625 -0.5631 -0.0760  1.0243
 1661SOL     OW 6641   4.273   0.523   2.748 -0.2520 -0.3077 -0.6686
 1661SOL    HW2 6642   4.196   0.477   2.714 -0.9172  0.0831  0.2909
 1661SOL    HW3 6643   4.348   0.471   2.718 -0.8987 -0.7298 -1.5394
 1661SOL    MW4 6644   4.273   0.510   2.740 -0.4251 -0.3118 -0.6569
 1662SOL     OW 6645   4.308   0.754   2.639  0.1182 -0.3685  0.1701
 1662SOL    HW2 6646   4.279   0.670   2.675 -0.3858 -0.6943 -0.9443
 1662SOL    HW3 6647   4.291   0.746   2.545  2.5215 -0.0228 -0.3281
 1662SOL    MW4 6648   4.302   0.742   2.631  0.3688 -0.3659 -0.0426
 1663SOL     OW 6649   4.066   0.916   2.705 -0.0641 -0.5133 -0.3016
 1663SOL    HW2 6650   4.147   0.873   2.677 -0.1682 -0.9465  0.0568
 1663SOL    HW3 6651   3.997   0.854   2.680 -0.2613 -0.2658 -0.3641
 1663SOL    MW4 6652   4.068   0.902   2.698 -0.1038 -0.5378 -0.2625
 1664SOL     OW 6653   4.038   1.181   2.640  0.4090  0.2223  0.5312
 1664SOL    HW2 6654   4.125   1.208   2.668  0.3295 -0.8795  1.8821
 1664SOL    HW3 6655   4.039   1.085   2.646 -0.9372  0.2040  0.7107
 1664SOL    MW4 6656   4.049   1.172   2.644  0.2209  0.0745  0.7331
 1665SOL     OW 6657   4.259   1.256   2.756  0.1598 -0.3058 -0.4558
 1665SOL    HW2 6658   4.278   1.337   2.709 -0.1969 -0.1930 -0.4085
 1665SOL    HW3 6659   4.328   1.196   2.730  0.4369  0.0215 -0.4745
 1665SOL    MW4 6660   4.270   1.259   2.747  0.1493 -0.2478 -0.4521
 1666SOL     OW 6661   4.257   1.521   2.638  0.0992 -0.1199 -0.4660
 1666SOL    HW2 6662   4.340   1.566   2.657  0.6621 -1.3068 -0.0813
 1666SOL    HW3 6663   4.241   1.539   2.546 -1.3046  3.4938  0.3864
 1666SOL    MW4 6664   4.266   1.530   2.629 -0.0117  0.2003 -0.3028
 1667SOL     OW 6665   4.029   1.651   2.736  0.0136  0.0951  0.0706
 1667SOL    HW2 6666   4.019   1.655   2.831  0.7181  0.4052  0.1297
 1667SOL    HW3 6667   4.106   1.596   2.722 -1.3361 -1.7407 -0.3781
 1667SOL    MW4 6668   4.037   1.644   2.747 -0.0715 -0.1062  0.0192
 1668SOL     OW 6669   4.022   1.931   2.634  0.0401  0.4721  0.1823
 1668SOL    HW2 6670   4.103   1.970   2.666 -0.4599  0.6281  1.2630
 1668SOL    HW3 6671   4.024   1.840   2.666  0.2094  0.2128 -0.5507
 1668SOL    MW4 6672   4.033   1.924   2.642 -0.0035  0.4585  0.2282
 1669SOL     OW 6673   4.232   2.057   2.753  0.1443 -0.3298 -0.4256
 1669SOL    HW2 6674   4.237   2.149   2.726  0.4124 -0.1484  0.2419
 1669SOL    HW3 6675   4.308   2.015   2.713  0.0352 -0.2578 -0.7102
 1669SOL    MW4 6676   4.242   2.064   2.744  0.1653 -0.2964 -0.3751
 1670SOL     OW 6677   4.258   2.303   2.623 -0.2729 -0.2128 -0.2816
 1670SOL    HW2 6678   4.188   2.365   2.642 -0.1111  0.0007 -0.3833
 1670SOL    HW3 6679   4.257   2.295   2.527 -0.6815 -0.8194 -0.2326
 1670SOL    MW4 6680   4.248   2.310   2.613 -0.3055 -0.2647 -0.2886
 1671SOL     OW 6681   4.053   2.457   2.684  0.6903 -0.3635 -0.2764
 1671SOL    HW2 6682   4.039   2.457   2.779 -0.2698 -2.6317 -0.3999
 1671SOL    HW3 6683   3.983   2.403   2.649  1.2029  0.2278 -2.2689
 1671SOL    MW4 6684   4.042   2.450   2.692  0.6313 -0.5847 -0.5556
 1672SOL     OW 6685   3.997   2.735   2.607 -0.7891 -0.5465  0.6026
 1672SOL    HW2 6686   4.067   2.784   2.651 -0.4480 -0.1877 -0.3262
 1672SOL    HW3 6687   4.019   2.643   2.621  0.7357 -0.4505 -1.0179
 1672SOL    MW4 6688   4.009   2.730   2.615 -0.5429 -0.4865  0.2663
 1673SOL     OW 6689   4.229   2.851   2.725  0.4433  0.1325  0.0405
 1673SOL    HW2 6690   4.242   2.838   2.819 -0.8412 -0.0456  0.2102
 1673SOL    HW3 6691   4.226   2.946   2.715  0.1978  0.1479  0.2414
 1673SOL    MW4 6692   4.230   2.862   2.736  0.2414  0.1110  0.0894
 1674SOL     OW 6693   4.254   3.108   2.667  0.1241 -0.1684 -0.3957
 1674SOL    HW2 6694   4.172   3.151   2.689  0.6287  0.5008  0.1861
 1674SOL    HW3 6695   4.254   3.103   2.572 -1.1763 -1.3226 -0.3433
 1674SOL    MW4 6696   4.244   3.113   2.657  0.0191 -0.2324 -0.3121
 1675SOL     OW 6697   4.015   3.245   2.735  0.2140 -0.0081 -0.4753
 1675SOL    HW2 6698   4.002   3.336   2.709 -0.8968  0.3524  1.2448
 1675SOL    HW3 6699   3.945   3.197   2.691 -0.3569  0.2694  0.1254
 1675SOL    MW4 6700   4.004   3.251   2.726 -0.0079  0.0761 -0.1691
 1676SOL     OW 6701   4.024   3.500   2.621 -0.3951 -0.2208  0.3693
 1676SOL    HW2 6702   4.103   3.546   2.649 -1.8638  2.0663  0.9338
 1676SOL    HW3 6703   4.022   3.511   2.526 -0.2436  0.0908  0.4013
 1676SOL    MW4 6704   4.034   3.508   2.612 -0.5689  0.1220  0.4480
 1677SOL     OW 6705   4.246   3.625   2.732  0.0416  0.2938 -0.4891
 1677SOL    HW2 6706   4.270   3.646   2.823  1.1474 -0.8012 -0.5252
 1677SOL    HW3 6707   4.319   3.572   2.699 -1.4635 -1.3721 -1.2381
 1677SOL    MW4 6708   4.259   3.621   2.740 -0.0111 -0.0704 -0.5927
 1678SOL     OW 6709   4.247   3.899   2.633  0.0975 -0.1143 -0.0163
 1678SOL    HW2 6710   4.235   3.806   2.652  0.9114 -0.5485 -1.5913
 1678SOL    HW3 6711   4.334   3.919   2.667  0.3567 -0.1893 -0.6295
 1678SOL    MW4 6712   4.257   3.889   2.640  0.2391 -0.1815 -0.3050
 1679SOL     OW 6713   4.048   4.066   2.740  0.0768  0.3265  0.3730
 1679SOL    HW2 6714   4.057   4.042   2.832  2.2825  1.3025  0.4578
 1679SOL    HW3 6715   4.117   4.015   2.696 -0.5370  0.3631 -0.6337
 1679SOL    MW4 6716   4.058   4.056   2.746  0.2868  0.4601  0.2513
 1680SOL     OW 6717   4.063   4.331   2.672  0.1490 -0.1058 -0.2788
 1680SOL    HW2 6718   4.035   4.247   2.708 -1.2150 -0.0168 -1.1186
 1680SOL    HW3 6719   4.055   4.322   2.577  1.5356  0.4357 -0.4613
 1680SOL    MW4 6720   4.058   4.319   2.665  0.1520 -0.0226 -0.4137
 1681SOL     OW 6721   4.316   4.419   2.774 -0.0896 -0.1848 -0.1293
 1681SOL    HW2 6722   4.234   4.378   2.744 -0.9501 -0.4039  2.4203
 1681SOL    HW3 6723   4.314   4.507   2.737 -0.7664 -0.6716 -1.2887
 1681SOL    MW4 6724   4.304   4.425   2.765 -0.2924 -0.2779  0.0541
 1682SOL     OW 6725   0.218   4.633   3.088  0.5970 -0.8831 -0.0796
 1682SOL    HW2 6726   0.200   4.631   3.181 -1.7469  0.3807 -0.4610
 1682SOL    HW3 6727   0.136   4.661   3.048  2.0081  0.1570 -2.3868
 1682SOL    MW4 6728   0.205   4.636   3.095  0.4739 -0.5791 -0.4343
 1683SOL     OW 6729   4.474   0.074   3.011  0.2059 -0.2202 -0.0447
 1683SOL    HW2 6730   4.413   0.032   3.071 -2.2056  1.3846 -1.2638
 1683SOL    HW3 6731   4.493   0.159   3.052 -0.6119  0.4355 -0.9981
 1683SOL    MW4 6732   4.468   0.080   3.024 -0.2202  0.0781 -0.3313
 1684SOL     OW 6733   0.018   0.319   3.108  0.2876 -0.0335  0.2040
 1684SOL    HW2 6734  -0.005   0.324   3.201  1.9401  0.9708  0.5913
 1684SOL    HW3 6735  -0.044   0.378   3.065  0.3187  0.4782  0.8501
 1684SOL    MW4 6736   0.007   0.328   3.115  0.5098  0.1665  0.3404
 1685SOL     OW 6737   0.221   0.489   3.070  0.1929 -0.1773  0.2115
 1685SOL    HW2 6738   0.297   0.430   3.078  0.7384  0.7610  2.4547
 1685SOL    HW3 6739   0.147   0.436   3.098  0.4055 -0.3893  0.3813
 1685SOL    MW4 6740   0.221   0.474   3.075  0.2929 -0.0815  0.5298
 1686SOL     OW 6741   0.249   0.732   3.186 -0.1586  0.4231  0.3265
 1686SOL    HW2 6742   0.226   0.737   3.278 -0.7010  0.3981  0.1952
 1686SOL    HW3 6743   0.248   0.638   3.166 -2.4592  0.5481 -0.2964
 1686SOL    MW4 6744   0.246   0.720   3.195 -0.5337  0.4363  0.2270
 1687SOL     OW 6745   0.041   0.867   3.033 -0.6971  0.6899 -0.0589
 1687SOL    HW2 6746   0.122   0.821   3.054 -0.6762  0.5963 -0.3353
 1687SOL    HW3 6747   0.045   0.879   2.938 -0.1755  2.2191  0.1276
 1687SOL    MW4 6748   0.053   0.863   3.023 -0.6255  0.8793 -0.0708
 1688SOL     OW 6749   0.037   1.125   3.144 -0.4623 -0.0081  0.3916
 1688SOL    HW2 6750  -0.042   1.165   3.108  0.8855  0.5284 -2.1060
 1688SOL    HW3 6751   0.038   1.036   3.108  0.1937  0.0782  0.1782
 1688SOL    MW4 6752   0.027   1.118   3.134 -0.1980  0.0740  0.0339
 1689SOL     OW 6753   0.271   1.251   3.053  0.1639  0.2659  0.7140
 1689SOL    HW2 6754   0.192   1.205   3.079 -0.0454  1.1742  1.7099
 1689SOL    HW3 6755   0.267   1.255   2.957 -0.7917 -0.0339  0.7450
 1689SOL    MW4 6756   0.260   1.246   3.043  0.0102  0.3462  0.8495
 1690SOL     OW 6757   0.252   1.541   3.119  0.4256  0.2920  0.2923
 1690SOL    HW2 6758   0.174   1.580   3.080  0.8057  0.9297  0.1628
 1690SOL    HW3 6759   0.233   1.448   3.123 -0.3445  0.4426  0.2565
 1690SOL    MW4 6760   0.240   1.534   3.115  0.3741  0.3960  0.2705
 1691SOL     OW 6761   0.017   1.680   2.987 -0.1077  0.4591  0.0867
 1691SOL    HW2 6762  -0.057   1.642   3.035  1.1015  0.0678  1.7020
 1691SOL    HW3 6763   0.022   1.770   3.020 -1.1629  1.1510 -1.5899
 1691SOL    MW4 6764   0.008   1.687   2.998 -0.0873  0.4988  0.0786
 1692SOL     OW 6765   0.014   1.934   3.103  0.4482 -0.2449  0.4886
 1692SOL    HW2 6766  -0.066   1.973   3.069  0.4651  0.1846  0.9317
 1692SOL    HW3 6767   0.084   1.984   3.061  0.4648  0.7236  1.6454
 1692SOL    MW4 6768   0.013   1.946   3.093  0.4526 -0.0604  0.6997
 1693SOL     OW 6769   0.245   2.075   2.981 -0.1615  0.4742  0.1987
 1693SOL    HW2 6770   0.257   2.163   3.016 -2.5892  0.2963  1.6136
 1693SOL    HW3 6771   0.224   2.089   2.888 -1.1992  1.4393  0.5685
 1693SOL    MW4 6772   0.244   2.088   2.973 -0.6187  0.5781  0.4341
 1694SOL     OW 6773   0.243   2.331   3.092  0.1420 -0.4639  0.1130
 1694SOL    HW2 6774   0.241   2.330   3.187 -0.4527 -0.5875  0.0998
 1694SOL    HW3 6775   0.299   2.405   3.070  0.1995 -0.3759  0.5534
 1694SOL    MW4 6776   0.250   2.340   3.102  0.0711 -0.4686  0.1694
 1695SOL     OW 6777   4.482   2.437   3.003 -0.1433 -0.1856  0.5980
 1695SOL    HW2 6778   4.479   2.530   3.025 -0.6899  0.0450 -0.4356
 1695SOL    HW3 6779   4.568   2.408   3.034  0.3214  0.8277  0.2921
 1695SOL    MW4 6780   4.493   2.445   3.010 -0.1541 -0.0215  0.4213
 1696SOL     OW 6781   0.027   2.698   3.080 -0.4449 -0.7052 -0.4432
 1696SOL    HW2 6782   0.011   2.686   3.173 -0.4494  2.0600 -0.0292
 1696SOL    HW3 6783   0.109   2.747   3.076  0.0776 -1.6633 -1.9477
 1696SOL    MW4 6784   0.036   2.703   3.092 -0.3766 -0.4668 -0.5871
 1697SOL     OW 6785   0.233   2.849   3.024 -0.3983  0.0691 -0.0701
 1697SOL    HW2 6786   0.320   2.814   3.044 -0.5713 -0.0449  0.5011
 1697SOL    HW3 6787   0.222   2.834   2.931  0.6638  1.1236 -0.3737
 1697SOL    MW4 6788   0.243   2.843   3.015 -0.2810  0.1932 -0.0348
 1698SOL     OW 6789   0.236   3.121   3.138  0.0810 -0.1376 -0.0435
 1698SOL    HW2 6790   0.151   3.164   3.133  0.6330  1.2742  2.0484
 1698SOL    HW3 6791   0.225   3.040   3.088 -2.8418 -0.5595  1.1892
 1698SOL    MW4 6792   0.224   3.116   3.130 -0.2318 -0.0070  0.3952
 1699SOL     OW 6793   4.466   3.217   3.074  0.4407 -0.1183 -0.2714
 1699SOL    HW2 6794   4.383   3.172   3.093 -0.2196  1.0216 -0.4396
 1699SOL    HW3 6795   4.474   3.212   2.979 -0.0778  0.8881 -0.3730
 1699SOL    MW4 6796   4.456   3.210   3.064  0.2852  0.1649 -0.3070
 1700SOL     OW 6797   0.016   3.515   3.115 -0.0985  0.5011  0.4389
 1700SOL    HW2 6798  -0.063   3.563   3.090 -1.8108 -1.7147  1.3699
 1700SOL    HW3 6799  -0.008   3.423   3.106  2.0800 -0.2316  1.6705
 1700SOL    MW4 6800   0.002   3.509   3.111 -0.0370  0.1121  0.7242
 1701SOL     OW 6801   0.247   3.630   3.017 -0.4984 -0.1943 -0.3000
 1701SOL    HW2 6802   0.238   3.722   3.042 -0.8504 -0.1686 -0.5092
 1701SOL    HW3 6803   0.173   3.586   3.059 -0.5294 -0.3211 -0.4846
 1701SOL    MW4 6804   0.236   3.636   3.026 -0.5489 -0.2076 -0.3520
 1702SOL     OW 6805   0.228   3.873   3.126  0.0158 -0.0592 -0.3146
 1702SOL    HW2 6806   0.228   3.853   3.220  0.3746  1.2319 -0.0242
 1702SOL    HW3 6807   0.315   3.909   3.110 -0.4872  0.9192 -0.8708
 1702SOL    MW4 6808   0.239   3.875   3.137 -0.0032  0.2402 -0.3496
 1703SOL     OW 6809   0.017   3.996   3.022 -0.0237  0.1222 -0.0331
 1703SOL    HW2 6810   0.093   3.949   3.055 -0.7155 -1.1305 -0.2054
 1703SOL    HW3 6811   0.019   3.983   2.927 -1.1307 -0.9600  0.0782
 1703SOL    MW4 6812   0.027   3.988   3.014 -0.2610 -0.1858 -0.0412
 1704SOL     OW 6813   0.032   4.248   3.111 -0.0667  0.2524 -0.5889
 1704SOL    HW2 6814   0.022   4.227   3.204  0.0881  1.1790 -0.3586
 1704SOL    HW3 6815   0.010   4.166   3.065 -2.5950  0.5034  0.1522
 1704SOL    MW4 6816   0.028   4.234   3.117 -0.3798  0.4077 -0.4607
 1705SOL     OW 6817   0.236   4.382   3.005 -0.4677  0.2875  0.4429
 1705SOL    HW2 6818   0.161   4.360   3.060  0.7064 -0.0288  1.9708
 1705SOL    HW3 6819   0.255   4.473   3.026  0.3387 -0.0031  1.0088
 1705SOL    MW4 6820   0.229   4.391   3.015 -0.2064  0.2074  0.7191
 1706SOL     OW 6821   0.663   4.616   3.163 -0.5737  0.0012 -0.6088
 1706SOL    HW2 6822   0.675   4.534   3.114  0.3687  0.4709 -1.1745
 1706SOL    HW3 6823   0.580   4.650   3.130  0.6180  0.8983 -2.7695
 1706SOL    MW4 6824   0.654   4.609   3.152 -0.2922  0.1815 -0.9685
 1707SOL     OW 6825   0.469   0.066   3.028  0.2146 -0.2160  0.1377
 1707SOL    HW2 6826   0.480   0.160   3.038  0.7419 -0.1041 -1.3671
 1707SOL    HW3 6827   0.377   0.050   3.050  0.4193  0.4778  1.5204
 1707SOL    MW4 6828   0.458   0.076   3.032  0.3112 -0.1097  0.1216
 1708SOL     OW 6829   0.462   0.347   3.111  0.1726 -0.4147  0.2291
 1708SOL    HW2 6830   0.451   0.361   3.205 -0.6747 -1.9745  0.3813
 1708SOL    HW3 6831   0.534   0.404   3.086  1.2644 -0.9473  2.0744
 1708SOL    MW4 6832   0.470   0.356   3.120  0.2049 -0.6908  0.4927
 1709SOL     OW 6833   0.688   0.501   3.047 -0.0725 -0.4807  0.4025
 1709SOL    HW2 6834   0.740   0.428   3.081 -0.9523 -0.8369  0.9965
 1709SOL    HW3 6835   0.726   0.579   3.088 -1.1544 -0.9106  2.2725
 1709SOL    MW4 6836   0.700   0.502   3.057 -0.3313 -0.5844  0.7276
 1710SOL     OW 6837   0.721   0.755   3.162  0.0194  0.0537  0.1858
 1710SOL    HW2 6838   0.719   0.766   3.257 -1.4161  1.3892  0.0121
 1710SOL    HW3 6839   0.630   0.769   3.134  0.6579  0.8735 -1.5158
 1710SOL    MW4 6840   0.709   0.758   3.171 -0.0857  0.3381 -0.0616
 1711SOL     OW 6841   0.468   0.856   3.066  0.2208 -0.0877  0.1783
 1711SOL    HW2 6842   0.395   0.813   3.109 -0.2029 -0.0338 -0.4768
 1711SOL    HW3 6843   0.449   0.848   2.973  0.6989  0.5382  0.0213
 1711SOL    MW4 6844   0.456   0.850   3.059  0.2280  0.0020  0.0712
 1712SOL     OW 6845   0.490   1.124   3.157 -0.3819 -0.6975 -0.1263
 1712SOL    HW2 6846   0.486   1.034   3.125 -0.7249 -1.1760  1.2121
 1712SOL    HW3 6847   0.406   1.162   3.132  0.0218 -0.5478 -1.2615
 1712SOL    MW4 6848   0.478   1.117   3.150 -0.3739 -0.7409 -0.0995
 1713SOL     OW 6849   0.678   1.285   3.047  0.1428  0.2765 -0.5076
 1713SOL    HW2 6850   0.750   1.229   3.075  0.8811  1.7463  0.5958
 1713SOL    HW3 6851   0.599   1.238   3.074  0.6981 -0.8612 -0.8168
 1713SOL    MW4 6852   0.677   1.271   3.054  0.3135  0.3203 -0.4028
 1714SOL     OW 6853   0.710   1.547   3.113 -0.4017 -0.2802  0.4521
 1714SOL    HW2 6854   0.687   1.539   3.206 -2.0751  1.4766  0.2218
 1714SOL    HW3 6855   0.696   1.459   3.078 -0.5736 -0.7592  1.6968
 1714SOL    MW4 6856   0.705   1.534   3.121 -0.6452 -0.1116  0.5860
 1715SOL     OW 6857   0.495   1.684   3.003 -0.3008 -0.0486 -0.0834
 1715SOL    HW2 6858   0.575   1.640   3.032 -0.7263 -0.2240  0.8302
 1715SOL    HW3 6859   0.424   1.631   3.040 -0.8228  1.1731  0.6669
 1715SOL    MW4 6860   0.497   1.671   3.012 -0.4258  0.0894  0.1361
 1716SOL     OW 6861   0.457   1.931   3.121 -0.0941  0.0851 -0.3746
 1716SOL    HW2 6862   0.464   1.853   3.066  2.3349  2.9517 -4.4322
 1716SOL    HW3 6863   0.376   1.973   3.093 -0.0728  0.3501 -0.0399
 1716SOL    MW4 6864   0.447   1.926   3.110  0.2292  0.4983 -0.8658
 1717SOL     OW 6865   0.669   2.061   3.013 -0.7799  0.2521  0.2425
 1717SOL    HW2 6866   0.743   2.014   3.052 -1.4900 -0.7751  0.3629
 1717SOL    HW3 6867   0.592   2.020   3.052 -1.4733 -0.1497 -1.5082
 1717SOL    MW4 6868   0.669   2.049   3.023 -0.9651  0.0636  0.0274
 1718SOL     OW 6869   0.665   2.329   3.109 -0.0912 -0.3969 -0.4567
 1718SOL    HW2 6870   0.664   2.309   3.202  0.6135 -0.3790 -0.4446
 1718SOL    HW3 6871   0.655   2.244   3.066  0.5669 -0.5143 -0.3773
 1718SOL    MW4 6872   0.663   2.315   3.115  0.0886 -0.4100 -0.4446
 1719SOL     OW 6873   0.465   2.479   2.982 -0.1101  0.1850  0.3604
 1719SOL    HW2 6874   0.534   2.431   3.028 -1.4774 -0.8336  1.4220
 1719SOL    HW3 6875   0.471   2.449   2.892  1.0918  0.4056  0.3592
 1719SOL    MW4 6876   0.475   2.468   2.976 -0.1319  0.0797  0.5003
 1720SOL     OW 6877   0.482   2.732   3.094  0.0523  0.7086 -0.5465
 1720SOL    HW2 6878   0.569   2.755   3.062  0.6907 -0.9606 -0.0408
 1720SOL    HW3 6879   0.467   2.644   3.060 -0.4692  0.0725  1.3118
 1720SOL    MW4 6880   0.491   2.724   3.085  0.0677  0.4045 -0.2346
 1721SOL     OW 6881   0.722   2.836   3.006 -0.2128 -0.2787 -0.2092
 1721SOL    HW2 6882   0.800   2.790   3.039  1.4224  1.4175 -1.6096
 1721SOL    HW3 6883   0.728   2.923   3.044 -2.3500 -0.6477  1.0090
 1721SOL    MW4 6884   0.733   2.842   3.015 -0.2790 -0.1036 -0.2333
 1722SOL     OW 6885   0.719   3.098   3.120 -0.0168  0.4289 -0.2501
 1722SOL    HW2 6886   0.719   3.090   3.216  2.5984  3.6427  0.1018
 1722SOL    HW3 6887   0.634   3.137   3.099 -1.2105 -1.6400  0.5683
 1722SOL    MW4 6888   0.708   3.102   3.130  0.1708  0.5799 -0.0957
 1723SOL     OW 6889   0.493   3.202   3.031 -0.0968  0.7507  0.3230
 1723SOL    HW2 6890   0.494   3.292   3.063  0.0069  0.5249  0.9453
 1723SOL    HW3 6891   0.419   3.161   3.075  0.4207  0.2719  0.7529
 1723SOL    MW4 6892   0.483   3.209   3.041 -0.0148  0.6577  0.4619
 1724SOL     OW 6893   0.464   3.471   3.114 -0.2035  0.2996 -0.3550
 1724SOL    HW2 6894   0.458   3.478   3.209 -0.3739 -0.0112 -0.3413
 1724SOL    HW3 6895   0.387   3.517   3.081 -0.6240 -0.3560 -0.3094
 1724SOL    MW4 6896   0.453   3.478   3.122 -0.2814  0.1721 -0.3472
 1725SOL     OW 6897   0.699   3.591   3.009 -0.5515  0.1668 -0.1334
 1725SOL    HW2 6898   0.776   3.544   3.041 -1.6548 -1.2220  0.5326
 1725SOL    HW3 6899   0.625   3.546   3.051 -1.7447  1.1672 -1.1598
 1725SOL    MW4 6900   0.699   3.579   3.019 -0.8545  0.1156 -0.1809
 1726SOL     OW 6901   0.723   3.868   3.091 -0.1675 -0.3513  0.1668
 1726SOL    HW2 6902   0.705   3.858   3.184 -1.8462 -0.9717 -0.2000
 1726SOL    HW3 6903   0.712   3.780   3.054 -1.0039  0.1639 -0.8486
 1726SOL    MW4 6904   0.719   3.855   3.098 -0.4993 -0.3652 -0.0156
 1727SOL     OW 6905   0.471   3.966   3.043  0.3868  0.1460 -0.0964
 1727SOL    HW2 6906   0.557   3.933   3.069  0.3082 -1.2909 -1.5716
 1727SOL    HW3 6907   0.470   3.959   2.948 -2.0687 -1.7328  0.0132
 1727SOL    MW4 6908   0.482   3.960   3.034  0.0525 -0.2915 -0.2766
 1728SOL     OW 6909   0.435   4.218   3.119 -0.1398 -0.2163 -0.3450
 1728SOL    HW2 6910   0.440   4.131   3.079  0.4927 -0.9323  1.2465
 1728SOL    HW3 6911   0.353   4.255   3.087  0.0766 -0.9906 -1.8328
 1728SOL    MW4 6912   0.425   4.212   3.109 -0.0278 -0.4129 -0.3313
 1729SOL     OW 6913   0.692   4.347   3.062  0.1638  0.3397  0.5511
 1729SOL    HW2 6914   0.612   4.299   3.085  0.3144  0.5882  1.6551
 1729SOL    HW3 6915   0.687   4.359   2.967 -0.5021 -0.7285  0.4444
 1729SOL    MW4 6916   0.681   4.343   3.053  0.0958  0.2315  0.6827
 1730SOL     OW 6917   1.087   4.655   3.142  0.3764 -0.2335  0.2545
 1730SOL    HW2 6918   1.158   4.703   3.100 -0.8917  1.8129  0.4059
 1730SOL    HW3 6919   1.009   4.678   3.091 -0.1359 -2.7802 -0.1596
 1730SOL    MW4 6920   1.087   4.664   3.130  0.1415 -0.2995  0.2198
 1731SOL     OW 6921   0.860   0.079   3.004 -0.2185  0.4349  0.2477
 1731SOL    HW2 6922   0.872   0.163   3.049  0.1739  1.9773 -2.6003
 1731SOL    HW3 6923   0.782   0.040   3.045 -0.0901  1.9437  1.9589
 1731SOL    MW4 6924   0.851   0.085   3.015 -0.1498  0.8374  0.0977
 1732SOL     OW 6925   0.895   0.335   3.121  0.4787  0.3935  0.2681
 1732SOL    HW2 6926   0.909   0.341   3.216  1.7528 -0.9613  0.1832
 1732SOL    HW3 6927   0.964   0.390   3.084  1.6113 -1.1300  0.0604
 1732SOL    MW4 6928   0.906   0.343   3.128  0.7963  0.0138  0.2295
 1733SOL     OW 6929   1.115   0.478   3.037 -0.3732  0.2996  0.3138
 1733SOL    HW2 6930   1.188   0.436   3.082 -0.7059  1.0392  1.5775
 1733SOL    HW3 6931   1.140   0.478   2.945  0.9302 -0.0395  0.6549
 1733SOL    MW4 6932   1.128   0.472   3.031 -0.2451  0.3524  0.5255
 1734SOL     OW 6933   1.189   0.737   3.094 -0.8039 -0.1066 -0.0335
 1734SOL    HW2 6934   1.201   0.742   3.189  1.1592 -0.8524 -0.2144
 1734SOL    HW3 6935   1.162   0.646   3.079  1.0653 -0.6251 -0.3808
 1734SOL    MW4 6936   1.187   0.725   3.105 -0.2983 -0.2734 -0.1032
 1735SOL     OW 6937   0.942   0.867   3.063  0.0858 -0.5183  0.0657
 1735SOL    HW2 6938   1.015   0.809   3.082  0.2614 -0.3925 -0.2368
 1735SOL    HW3 6939   0.865   0.820   3.095  0.4196 -0.1427  1.4837
 1735SOL    MW4 6940   0.941   0.853   3.070  0.1530 -0.4522  0.2129
 1736SOL     OW 6941   0.909   1.137   3.136 -0.0747  0.3114 -0.3465
 1736SOL    HW2 6942   0.978   1.186   3.092  1.0618 -0.2631  0.7644
 1736SOL    HW3 6943   0.918   1.048   3.102  0.9648 -0.1896  1.2142
 1736SOL    MW4 6944   0.919   1.131   3.125  0.2124  0.1695  0.0060
 1737SOL     OW 6945   1.098   1.266   2.990 -0.2941  0.3194  0.1921
 1737SOL    HW2 6946   1.178   1.230   3.030  0.0381  0.0413 -0.7051
 1737SOL    HW3 6947   1.119   1.272   2.896 -1.6274 -0.6024 -0.1823
 1737SOL    MW4 6948   1.111   1.262   2.983 -0.4262  0.1611  0.0243
 1738SOL     OW 6949   1.151   1.478   3.173 -0.3777  0.2101  0.2472
 1738SOL    HW2 6950   1.222   1.524   3.128  0.2150  0.8129  1.7552
 1738SOL    HW3 6951   1.122   1.412   3.110  1.3534  0.1137 -0.4936
 1738SOL    MW4 6952   1.157   1.476   3.159 -0.0711  0.2769  0.3484
 1739SOL     OW 6953   0.952   1.654   3.061  0.1604 -0.3059 -0.1370
 1739SOL    HW2 6954   1.015   1.602   3.111  1.1554  0.8352 -0.1742
 1739SOL    HW3 6955   0.867   1.619   3.086  0.7130 -0.6758  1.3047
 1739SOL    MW4 6956   0.949   1.643   3.071  0.3646 -0.2042  0.0483
 1740SOL     OW 6957   0.888   1.922   3.130 -0.3404  0.0053  0.5505
 1740SOL    HW2 6958   0.881   1.931   3.225 -0.5542  1.0706  0.4350
 1740SOL    HW3 6959   0.900   1.828   3.116 -1.6877 -0.3375  1.5569
 1740SOL    MW4 6960   0.888   1.911   3.141 -0.5464  0.1006  0.6680
 1741SOL     OW 6961   1.157   2.018   3.014  0.0773 -0.0148  0.4268
 1741SOL    HW2 6962   1.083   1.965   3.043  0.9890 -1.2273  0.5572
 1741SOL    HW3 6963   1.139   2.037   2.922  0.3858 -1.6695  0.0157
 1741SOL    MW4 6964   1.145   2.013   3.006  0.2383 -0.3931  0.3898
 1742SOL     OW 6965   1.145   2.286   3.091  0.5231  0.5081  0.3981
 1742SOL    HW2 6966   1.052   2.295   3.070  0.1563 -0.7078  1.4252
 1742SOL    HW3 6967   1.166   2.196   3.065  1.8884  1.3492 -1.5642
 1742SOL    MW4 6968   1.136   2.275   3.085  0.6548  0.4587  0.2747
 1743SOL     OW 6969   0.903   2.420   3.014  0.2519  0.4121 -0.4512
 1743SOL    HW2 6970   0.817   2.394   3.048 -0.1373  0.2209 -1.5658
 1743SOL    HW3 6971   0.901   2.396   2.922  1.7928 -0.2792 -0.3169
 1743SOL    MW4 6972   0.891   2.414   3.007  0.4038  0.2956 -0.5805
 1744SOL     OW 6973   0.945   2.678   3.102 -0.5710 -0.0804  0.1530
 1744SOL    HW2 6974   0.941   2.644   3.191  0.1874  0.2600  0.3184
 1744SOL    HW3 6975   0.924   2.602   3.047 -1.0188 -0.2959  0.6180
 1744SOL    MW4 6976   0.942   2.663   3.106 -0.5300 -0.0639  0.2362
 1745SOL     OW 6977   1.130   2.852   2.999 -0.4709  0.8723 -0.4705
 1745SOL    HW2 6978   1.123   2.935   3.047 -3.3840 -0.0368  0.8375
 1745SOL    HW3 6979   1.055   2.801   3.030  0.5526 -1.7694 -2.1964
 1745SOL    MW4 6980   1.119   2.856   3.010 -0.7202  0.4038 -0.5257
 1746SOL     OW 6981   1.154   3.077   3.147 -0.0509  0.2049  0.2660
 1746SOL    HW2 6982   1.230   3.127   3.117 -1.3791  1.6342 -0.7798
 1746SOL    HW3 6983   1.081   3.109   3.094 -1.3762 -1.2478  1.1469
 1746SOL    MW4 6984   1.154   3.088   3.136 -0.4010  0.2018  0.2442
 1747SOL     OW 6985   0.950   3.207   2.998  0.0967  0.2480  0.0338
 1747SOL    HW2 6986   0.876   3.166   3.043  0.2289 -0.3836 -0.3160
 1747SOL    HW3 6987   0.930   3.195   2.905  0.1853  0.8968 -0.0712
 1747SOL    MW4 6988   0.937   3.200   2.991  0.1259  0.2503 -0.0262
 1748SOL     OW 6989   0.943   3.452   3.112  0.4306  0.7034 -0.2149
 1748SOL    HW2 6990   1.013   3.512   3.086  1.0920  0.3804  0.7865
 1748SOL    HW3 6991   0.967   3.369   3.071  0.0443  0.8654 -0.7768
 1748SOL    MW4 6992   0.955   3.449   3.103  0.4669  0.6821 -0.1569
 1749SOL     OW 6993   1.143   3.608   3.046  0.0235  0.1064 -0.2629
 1749SOL    HW2 6994   1.217   3.554   3.070  0.3952  0.9498  0.5077
 1749SOL    HW3 6995   1.155   3.689   3.095 -2.4581 -0.4906  1.3969
 1749SOL    MW4 6996   1.154   3.612   3.055 -0.2549  0.1389  0.0577
 1750SOL     OW 6997   1.172   3.854   3.157  0.4461  0.4969 -0.3680
 1750SOL    HW2 6998   1.161   3.837   3.251 -0.6202 -1.8071 -0.8940
 1750SOL    HW3 6999   1.106   3.921   3.137 -0.0768  0.1779  0.2882
 1750SOL    MW4 7000   1.162   3.861   3.167  0.2364  0.1508 -0.3508
 1751SOL     OW 7001   0.974   4.008   3.045 -0.5948  0.2856  0.1476
 1751SOL    HW2 7002   0.886   3.980   3.069  0.6352 -3.1868  0.8237
 1751SOL    HW3 7003   0.976   4.003   2.950 -0.3942 -2.0287  0.2601
 1751SOL    MW4 7004   0.963   4.004   3.036 -0.4061 -0.4779  0.2516
 1752SOL     OW 7005   0.937   4.288   3.180 -0.0292  0.2576  0.1861
 1752SOL    HW2 7006   0.957   4.207   3.133  0.3188  0.1883  0.4523
 1752SOL    HW3 7007   0.852   4.316   3.145  0.8317  0.8986 -1.4125
 1752SOL    MW4 7008   0.928   4.281   3.169  0.1303  0.3331  0.0103
 1753SOL     OW 7009   1.137   4.403   3.022  0.5442 -0.2460  0.0058
 1753SOL    HW2 7010   1.062   4.379   3.076 -1.7592  0.6081 -2.6674
 1753SOL    HW3 7011   1.145   4.498   3.032  0.6935 -0.2144 -0.3852
 1753SOL    MW4 7012   1.128   4.412   3.030  0.2600 -0.1292 -0.3985
 1754SOL     OW 7013   1.559   4.655   3.150  0.0272  0.4939  0.1054
 1754SOL    HW2 7014   1.566   4.648   3.245  0.5538 -1.0588 -0.0385
 1754SOL    HW3 7015   1.466   4.664   3.132 -0.0323  1.2988  0.7915
 1754SOL    MW4 7016   1.548   4.655   3.160  0.0888  0.3952  0.1769
 1755SOL     OW 7017   1.305   0.101   3.021  0.1628  0.0044 -0.4172
 1755SOL    HW2 7018   1.317   0.192   3.049 -0.8002 -0.1720  0.6180
 1755SOL    HW3 7019   1.322   0.102   2.927 -0.6575  1.4299 -0.5659
 1755SOL    MW4 7020   1.309   0.113   3.012 -0.0725  0.1692 -0.3002
 1756SOL     OW 7021   1.354   0.358   3.151 -0.0660 -0.4520  0.1555
 1756SOL    HW2 7022   1.368   0.373   3.245 -0.0877 -0.6870  0.1964
 1756SOL    HW3 7023   1.409   0.424   3.108  1.5368 -1.6576  0.3139
 1756SOL    MW4 7024   1.363   0.369   3.158  0.1426 -0.6421  0.1818
 1757SOL     OW 7025   1.546   0.545   3.033 -0.3464 -0.2472  0.3749
 1757SOL    HW2 7026   1.565   0.639   3.034 -0.8886 -0.1384  0.9281
 1757SOL    HW3 7027   1.553   0.520   2.941 -1.9990  0.7118 -0.0471
 1757SOL    MW4 7028   1.549   0.554   3.021 -0.6360 -0.1063  0.3922
 1758SOL     OW 7029   1.611   0.804   3.129 -0.3103 -0.4644 -0.1737
 1758SOL    HW2 7030   1.606   0.796   3.224  1.8071  0.8077  0.0865
 1758SOL    HW3 7031   1.529   0.845   3.104 -0.2040  0.7060  1.3090
 1758SOL    MW4 7032   1.600   0.809   3.138 -0.0169 -0.1422  0.0563
 1759SOL     OW 7033   1.398   0.921   2.998  0.2913 -0.6206  0.1983
 1759SOL    HW2 7034   1.396   1.007   3.041 -1.3610 -0.8379  0.6171
 1759SOL    HW3 7035   1.337   0.868   3.049 -1.2829 -1.0551 -2.0624
 1759SOL    MW4 7036   1.390   0.926   3.010 -0.1344 -0.7066 -0.0447
 1760SOL     OW 7037   1.345   1.179   3.102  0.2589  0.2246  0.1907
 1760SOL    HW2 7038   1.353   1.190   3.196 -1.2348  2.0671  0.1268
 1760SOL    HW3 7039   1.411   1.237   3.064  0.9235 -0.5861  0.0974
 1760SOL    MW4 7040   1.355   1.188   3.109  0.1495  0.3607  0.1700
 1761SOL     OW 7041   1.565   1.299   2.990 -0.5952 -0.2212 -0.3288
 1761SOL    HW2 7042   1.642   1.262   3.034 -0.4866  0.4490  0.0545
 1761SOL    HW3 7043   1.566   1.392   3.014 -1.0308 -0.0275 -1.0408
 1761SOL    MW4 7044   1.575   1.306   2.999 -0.6383 -0.1072 -0.3722
 1762SOL     OW 7045   1.616   1.553   3.116 -0.5193  0.5665 -0.2410
 1762SOL    HW2 7046   1.681   1.601   3.066 -0.4759  2.2719  1.3808
 1762SOL    HW3 7047   1.532   1.592   3.089 -0.5096  1.3510  0.8151
 1762SOL    MW4 7048   1.613   1.565   3.106 -0.5123  0.8950  0.1123
 1763SOL     OW 7049   1.357   1.615   3.038  0.5584 -0.0965  0.5145
 1763SOL    HW2 7050   1.339   1.706   3.064 -0.3715  0.7162 -2.6578
 1763SOL    HW3 7051   1.376   1.621   2.944 -0.2773 -3.2924  0.0843
 1763SOL    MW4 7052   1.357   1.628   3.029  0.3254 -0.4109  0.0392
 1764SOL     OW 7053   1.375   1.881   3.109  0.1878 -0.1608  0.1938
 1764SOL    HW2 7054   1.373   1.897   3.204  0.8838 -1.9816  0.5439
 1764SOL    HW3 7055   1.302   1.932   3.074 -0.7174 -0.3041  1.8344
 1764SOL    MW4 7056   1.365   1.890   3.117  0.1602 -0.4199  0.4564
 1765SOL     OW 7057   1.588   2.048   3.034 -0.1239 -0.0411 -0.2552
 1765SOL    HW2 7058   1.519   1.996   3.075  0.1819  0.3178  0.7369
 1765SOL    HW3 7059   1.571   2.041   2.940 -2.3862  1.2416  0.0249
 1765SOL    MW4 7060   1.577   2.040   3.027 -0.3821  0.1755 -0.0873
 1766SOL     OW 7061   1.589   2.309   3.100  0.3300 -0.0661 -0.4259
 1766SOL    HW2 7062   1.515   2.350   3.056  0.0498 -0.9992 -0.8521
 1766SOL    HW3 7063   1.587   2.218   3.070 -0.1568 -0.8461  1.8875
 1766SOL    MW4 7064   1.579   2.302   3.090  0.2288 -0.2921 -0.1769
 1767SOL     OW 7065   1.355   2.459   3.014 -0.1153  0.0848  0.3175
 1767SOL    HW2 7066   1.283   2.409   3.052 -0.8147  1.4945  0.8623
 1767SOL    HW3 7067   1.343   2.450   2.920 -0.3545 -0.5897  0.4057
 1767SOL    MW4 7068   1.344   2.451   3.007 -0.2392  0.1818  0.4010
 1768SOL     OW 7069   1.355   2.718   3.087 -0.1500  0.2489  0.5209
 1768SOL    HW2 7070   1.349   2.630   3.049  0.6770  0.3420  0.1673
 1768SOL    HW3 7071   1.274   2.762   3.059 -0.1093 -0.0805 -0.1269
 1768SOL    MW4 7072   1.343   2.712   3.078 -0.0355  0.2177  0.3888
 1769SOL     OW 7073   1.584   2.852   3.017 -0.7241  0.3085 -0.4834
 1769SOL    HW2 7074   1.660   2.801   3.045 -0.5588 -0.0081 -1.4879
 1769SOL    HW3 7075   1.509   2.799   3.044 -0.6179  0.9676  1.1646
 1769SOL    MW4 7076   1.584   2.838   3.025 -0.6883  0.3537 -0.3985
 1770SOL     OW 7077   1.611   3.114   3.108  0.2749  0.1576  0.2257
 1770SOL    HW2 7078   1.608   3.106   3.203 -2.9629  1.9327  0.3396
 1770SOL    HW3 7079   1.605   3.024   3.075 -1.5031 -0.2791  1.6873
 1770SOL    MW4 7080   1.610   3.101   3.116 -0.3869  0.3342  0.4335
 1771SOL     OW 7081   1.359   3.210   3.036  0.0349 -0.4873 -0.1419
 1771SOL    HW2 7082   1.448   3.189   3.063  0.2654 -0.4497 -0.8517
 1771SOL    HW3 7083   1.362   3.208   2.940 -0.6042  0.0116 -0.1773
 1771SOL    MW4 7084   1.371   3.207   3.027 -0.0190 -0.4165 -0.2402
 1772SOL     OW 7085   1.365   3.476   3.106  0.7358 -0.4393  0.3281
 1772SOL    HW2 7086   1.343   3.471   3.199  0.4920 -1.4243  0.2291
 1772SOL    HW3 7087   1.364   3.385   3.077 -0.5824 -0.0312 -0.9577
 1772SOL    MW4 7088   1.362   3.463   3.114  0.5297 -0.5154  0.1454
 1773SOL     OW 7089   1.592   3.621   3.056 -0.2913 -0.9157 -0.3511
 1773SOL    HW2 7090   1.512   3.572   3.074 -0.9410 -0.2866 -1.4554
 1773SOL    HW3 7091   1.594   3.629   2.960  0.5236  0.0217 -0.2606
 1773SOL    MW4 7092   1.582   3.615   3.046 -0.2695 -0.7090 -0.4849
 1774SOL     OW 7093   1.567   3.880   3.172 -0.9218 -0.3393 -0.0533
 1774SOL    HW2 7094   1.638   3.924   3.124 -0.5272 -0.6734  0.2247
 1774SOL    HW3 7095   1.578   3.787   3.152 -0.1905 -0.5850  1.4202
 1774SOL    MW4 7096   1.578   3.874   3.163 -0.7732 -0.4158  0.1778
 1775SOL     OW 7097   1.366   4.021   3.035 -0.3621 -0.1056 -0.1909
 1775SOL    HW2 7098   1.447   3.981   3.066 -0.5530 -1.1052 -0.9389
 1775SOL    HW3 7099   1.296   3.967   3.072 -0.7417  1.3302  1.2645
 1775SOL    MW4 7100   1.367   4.009   3.044 -0.4374 -0.0480 -0.0975
 1776SOL     OW 7101   1.347   4.275   3.147 -0.0482  0.0332  0.3314
 1776SOL    HW2 7102   1.341   4.191   3.103 -0.5866 -0.2220  0.8951
 1776SOL    HW3 7103   1.278   4.328   3.108 -0.2113 -0.0377  0.5218
 1776SOL    MW4 7104   1.337   4.271   3.136 -0.1408 -0.0098  0.4309
 1777SOL     OW 7105   1.574   4.379   3.023 -0.2894  0.1695  0.6592
 1777SOL    HW2 7106   1.505   4.341   3.077  0.0215  0.2178  1.0971
 1777SOL    HW3 7107   1.581   4.470   3.054  1.6401 -0.5119  2.3014
 1777SOL    MW4 7108   1.566   4.386   3.034  0.0062  0.0860  0.9336
 1778SOL     OW 7109   2.039   0.043   3.141 -0.4593 -0.1383  0.2721
 1778SOL    HW2 7110   2.023   0.030   3.234 -0.8820  0.7128  0.3197
 1778SOL    HW3 7111   1.960   0.086   3.108 -0.5463 -0.9335 -0.5912
 1778SOL    MW4 7112   2.027   0.047   3.149 -0.5266 -0.1309  0.1644
 1779SOL     OW 7113   1.776   0.151   3.059  0.2202  0.1220  0.6260
 1779SOL    HW2 7114   1.699   0.103   3.089 -0.8992  1.5067  0.0420
 1779SOL    HW3 7115   1.781   0.135   2.965  0.3348  0.4482  0.5732
 1779SOL    MW4 7116   1.767   0.143   3.051  0.0876  0.3477  0.5420
 1780SOL     OW 7117   1.769   0.430   3.122  0.4087 -0.3428 -0.1962
 1780SOL    HW2 7118   1.765   0.337   3.102 -1.3311 -0.2322 -0.4287
 1780SOL    HW3 7119   1.689   0.467   3.085  0.5328  1.0585  0.8469
 1780SOL    MW4 7120   1.758   0.423   3.115  0.1955 -0.1433 -0.0893
 1781SOL     OW 7121   1.983   0.492   2.991  0.2289  0.1487 -0.3125
 1781SOL    HW2 7122   1.899   0.475   3.034  0.7125 -2.1383 -0.2570
 1781SOL    HW3 7123   1.963   0.491   2.897  0.3335 -1.1723 -0.3223
 1781SOL    MW4 7124   1.969   0.490   2.984  0.3065 -0.3274 -0.3065
 1782SOL     OW 7125   2.059   0.749   3.108  0.1335  0.0314  0.0572
 1782SOL    HW2 7126   1.984   0.804   3.083 -0.0955  0.1473  0.9895
 1782SOL    HW3 7127   2.043   0.665   3.065 -1.1102 -0.3099  1.1837
 1782SOL    MW4 7128   2.047   0.745   3.099 -0.0608  0.0017  0.3288
 1783SOL     OW 7129   1.837   0.897   2.991  0.1859 -0.2022 -0.0256
 1783SOL    HW2 7130   1.762   0.862   3.040  1.8097 -1.6834  1.4807
 1783SOL    HW3 7131   1.810   0.891   2.899 -2.2923  1.1140  0.5818
 1783SOL    MW4 7132   1.824   0.891   2.985  0.0731 -0.2240  0.2532
 1784SOL     OW 7133   1.808   1.163   3.084  0.0636  0.2840  0.6788
 1784SOL    HW2 7134   1.810   1.145   3.178  0.1366 -0.8850  0.4553
 1784SOL    HW3 7135   1.830   1.080   3.042  4.2199  1.7904 -0.3057
 1784SOL    MW4 7136   1.811   1.150   3.091  0.6216  0.3285  0.5195
 1785SOL     OW 7137   2.017   1.302   2.986  0.3922  0.1055  0.1016
 1785SOL    HW2 7138   2.086   1.248   3.024  0.3610 -0.3696 -0.5015
 1785SOL    HW3 7139   1.935   1.263   3.017  0.3819  0.1226  0.0955
 1785SOL    MW4 7140   2.015   1.290   2.995  0.3868  0.0451  0.0212
 1786SOL     OW 7141   2.047   1.553   3.130  0.7268  0.4735  0.3514
 1786SOL    HW2 7142   2.053   1.542   3.225  1.5675  0.1606  0.2707
 1786SOL    HW3 7143   2.035   1.465   3.096 -0.7992  0.7195  0.2451
 1786SOL    MW4 7144   2.046   1.540   3.138  0.6364  0.4647  0.3267
 1787SOL     OW 7145   1.810   1.703   2.998 -0.3317 -0.1977 -0.2140
 1787SOL    HW2 7146   1.816   1.787   3.045  1.1948  0.4864 -1.5661
 1787SOL    HW3 7147   1.882   1.651   3.034  1.1045  0.4755 -2.0069
 1787SOL    MW4 7148   1.821   1.707   3.009  0.0592 -0.0187 -0.6290
 1788SOL     OW 7149   1.792   1.947   3.169 -0.0246  0.1803  0.3988
 1788SOL    HW2 7150   1.869   1.995   3.137  0.5985  0.0891  1.7276
 1788SOL    HW3 7151   1.719   1.980   3.116  0.9653  0.1205 -1.0010
 1788SOL    MW4 7152   1.792   1.958   3.158  0.1882  0.1604  0.3894
 1789SOL     OW 7153   2.011   2.082   3.054  0.2123 -0.2068 -0.0938
 1789SOL    HW2 7154   2.092   2.032   3.065  0.6353  0.5776  0.4221
 1789SOL    HW3 7155   2.028   2.165   3.098 -0.9353 -0.0934  0.1514
 1789SOL    MW4 7156   2.024   2.086   3.061  0.1167 -0.0884  0.0066
 1790SOL     OW 7157   2.036   2.358   3.155  0.3035 -0.2360 -0.1252
 1790SOL    HW2 7158   2.103   2.401   3.102  0.4589 -1.1855 -0.7037
 1790SOL    HW3 7159   1.953   2.384   3.116  0.4602 -2.2067 -1.8403
 1790SOL    MW4 7160   2.034   2.367   3.143  0.3447 -0.6213 -0.4278
 1791SOL     OW 7161   1.809   2.445   3.012 -0.0209  0.1939  0.4427
 1791SOL    HW2 7162   1.803   2.532   3.052 -1.0458  0.4617 -0.2913
 1791SOL    HW3 7163   1.737   2.395   3.051 -0.4135  0.1564 -0.3210
 1791SOL    MW4 7164   1.799   2.450   3.023 -0.2079  0.2243  0.2451
 1792SOL     OW 7165   1.812   2.689   3.113  0.2009 -0.1098 -0.1486
 1792SOL    HW2 7166   1.811   2.680   3.209  0.3324 -0.0248 -0.1392
 1792SOL    HW3 7167   1.901   2.717   3.093  0.8799 -2.3869 -0.5004
 1792SOL    MW4 7168   1.824   2.691   3.123  0.3078 -0.3990 -0.1938
 1793SOL     OW 7169   2.042   2.833   3.029  0.5243 -0.1676 -0.3355
 1793SOL    HW2 7170   2.040   2.925   3.057  1.1998 -0.0368 -0.7197
 1793SOL    HW3 7171   2.035   2.838   2.933 -1.4699 -0.5980 -0.2448
 1793SOL    MW4 7172   2.041   2.846   3.020  0.3503 -0.2071 -0.3742
 1794SOL     OW 7173   2.035   3.097   3.104  0.1394 -0.2332 -0.3140
 1794SOL    HW2 7174   2.009   3.100   3.196  1.1932  1.1161 -0.0400
 1794SOL    HW3 7175   1.964   3.142   3.058  0.0049 -0.1749 -0.0517
 1794SOL    MW4 7176   2.022   3.104   3.110  0.2607 -0.0475 -0.2432
 1795SOL     OW 7177   1.825   3.250   3.012 -0.3607  0.0763 -0.3337
 1795SOL    HW2 7178   1.750   3.213   3.059  0.1953 -0.3756  0.2063
 1795SOL    HW3 7179   1.793   3.263   2.923 -1.2367  0.3586  0.0126
 1795SOL    MW4 7180   1.811   3.247   3.007 -0.4029  0.0539 -0.2168
 1796SOL     OW 7181   1.840   3.511   3.107 -0.3900 -0.1205  0.0548
 1796SOL    HW2 7182   1.837   3.419   3.078 -0.2608  0.1641 -0.8832
 1796SOL    HW3 7183   1.751   3.543   3.093  0.2743  0.7554 -2.5449
 1796SOL    MW4 7184   1.828   3.503   3.101 -0.2853  0.0326 -0.4120
 1797SOL     OW 7185   2.043   3.650   3.004  0.5411  0.1466 -0.3105
 1797SOL    HW2 7186   2.022   3.736   3.042 -0.4151 -0.2736  0.1230
 1797SOL    HW3 7187   1.970   3.594   3.029  0.8147 -0.6217 -1.1990
 1797SOL    MW4 7188   2.031   3.654   3.012  0.4510 -0.0102 -0.3705
 1798SOL     OW 7189   2.001   3.890   3.128  0.3336 -0.0157  0.1617
 1798SOL    HW2 7190   1.986   3.867   3.220 -0.0525 -2.4339 -0.4734
 1798SOL    HW3 7191   1.919   3.928   3.099 -0.0198 -0.5657  0.4323
 1798SOL    MW4 7192   1.988   3.892   3.136  0.2360 -0.4073  0.1136
 1799SOL     OW 7193   1.779   4.027   3.054 -0.0491  0.4283 -0.0349
 1799SOL    HW2 7194   1.805   4.112   3.090 -1.6023  0.7088  0.4770
 1799SOL    HW3 7195   1.775   4.041   2.959 -0.0119  0.8422  0.0252
 1799SOL    MW4 7196   1.782   4.040   3.046 -0.2491  0.5199  0.0406
 1800SOL     OW 7197   1.820   4.282   3.120 -0.0779  0.3597  0.0941
 1800SOL    HW2 7198   1.892   4.331   3.080 -0.2981  0.2920 -0.3771
 1800SOL    HW3 7199   1.741   4.324   3.088 -0.2511  1.3495  1.7341
 1800SOL    MW4 7200   1.819   4.294   3.111 -0.1298  0.4814  0.2483
 1801SOL     OW 7201   2.029   4.436   3.032 -0.2230 -0.3801  0.0775
 1801SOL    HW2 7202   2.033   4.526   3.062  2.2664 -0.9062  1.5052
 1801SOL    HW3 7203   2.036   4.443   2.936 -1.6629  0.9980  0.0589
 1801SOL    MW4 7204   2.031   4.449   3.023 -0.0846 -0.2677  0.2634
 1802SOL     OW 7205   2.467   0.045   3.144  0.4711  0.1239 -0.2580
 1802SOL    HW2 7206   2.449  -0.047   3.123 -0.2850 -0.1550  1.5197
 1802SOL    HW3 7207   2.384   0.090   3.128  0.3949  0.2176  0.3934
 1802SOL    MW4 7208   2.454   0.038   3.139  0.3613  0.0995  0.0625
 1803SOL     OW 7209   2.245   0.175   3.024  0.2366 -0.3765  0.1023
 1803SOL    HW2 7210   2.235   0.267   3.050 -0.0868 -0.1990 -0.6229
 1803SOL    HW3 7211   2.170   0.131   3.064 -0.6886  0.0347 -1.1345
 1803SOL    MW4 7212   2.234   0.181   3.033  0.0719 -0.2988 -0.1565
 1804SOL     OW 7213   2.218   0.444   3.105 -0.1205 -0.5840  0.6415
 1804SOL    HW2 7214   2.199   0.437   3.198 -2.1191  1.3790  0.4092
 1804SOL    HW3 7215   2.132   0.457   3.064  0.8084 -0.7337 -1.4051
 1804SOL    MW4 7216   2.204   0.445   3.112 -0.2616 -0.3447  0.3408
 1805SOL     OW 7217   2.471   0.512   3.040  0.4341  0.7169  0.2464
 1805SOL    HW2 7218   2.379   0.489   3.049  0.4294  0.8904  0.6449
 1805SOL    HW3 7219   2.481   0.538   2.948  0.5210 -1.2345 -0.3271
 1805SOL    MW4 7220   2.461   0.512   3.029  0.4449  0.4823  0.2233
 1806SOL     OW 7221   2.505   0.762   3.161 -0.3810 -0.3712 -0.5845
 1806SOL    HW2 7222   2.587   0.791   3.120 -0.6295  1.7851  0.3860
 1806SOL    HW3 7223   2.486   0.678   3.119  1.1455  0.1694 -2.4473
 1806SOL    MW4 7224   2.514   0.754   3.150 -0.2124 -0.0154 -0.7023
 1807SOL     OW 7225   2.275   0.889   3.049  0.0673  0.5097  0.0246
 1807SOL    HW2 7226   2.349   0.857   3.100 -0.2212  1.2630  0.9359
 1807SOL    HW3 7227   2.204   0.829   3.069  0.5193 -0.4207 -1.1237
 1807SOL    MW4 7228   2.276   0.877   3.058  0.0889  0.4864 -0.0066
 1808SOL     OW 7229   2.260   1.166   3.095  0.3005  0.1735  0.1975
 1808SOL    HW2 7230   2.227   1.163   3.184 -0.3602 -0.7420 -0.0831
 1808SOL    HW3 7231   2.259   1.075   3.065  0.9670  0.4147 -0.5779
 1808SOL    MW4 7232   2.256   1.154   3.103  0.3013  0.0846  0.0582
 1809SOL     OW 7233   2.484   1.299   2.996 -0.3441  0.0824  0.3596
 1809SOL    HW2 7234   2.404   1.259   3.028  1.3712 -3.4624  0.4385
 1809SOL    HW3 7235   2.475   1.298   2.900 -0.4815 -0.1043  0.3755
 1809SOL    MW4 7236   2.472   1.294   2.987 -0.1359 -0.4099  0.3721
 1810SOL     OW 7237   2.518   1.561   3.127  0.4667 -0.3936 -0.1549
 1810SOL    HW2 7238   2.436   1.605   3.103  0.2195 -0.1465  1.1477
 1810SOL    HW3 7239   2.515   1.479   3.079 -0.5498 -0.3899 -0.1160
 1810SOL    MW4 7240   2.507   1.556   3.117  0.3000 -0.3605  0.0221
 1811SOL     OW 7241   2.281   1.701   3.017  0.1515 -0.2323 -0.7099
 1811SOL    HW2 7242   2.201   1.653   3.036 -0.6191  1.4477  0.4894
 1811SOL    HW3 7243   2.288   1.701   2.921 -0.6436 -1.3997 -0.7681
 1811SOL    MW4 7244   2.271   1.695   3.007 -0.0550 -0.1647 -0.5593
 1812SOL     OW 7245   2.270   1.969   3.101  0.0326  0.0698  0.5937
 1812SOL    HW2 7246   2.343   2.013   3.058  0.0755 -0.2280  0.3576
 1812SOL    HW3 7247   2.265   1.883   3.059 -1.2548  0.5589 -0.2895
 1812SOL    MW4 7248   2.279   1.964   3.090 -0.1316  0.0951  0.4460
 1813SOL     OW 7249   2.511   2.062   2.992 -0.2429 -0.4184  0.2087
 1813SOL    HW2 7250   2.581   2.011   3.033  1.1149  1.6603  0.5496
 1813SOL    HW3 7251   2.529   2.057   2.898  0.0208 -0.3694  0.2566
 1813SOL    MW4 7252   2.522   2.055   2.985 -0.0290 -0.1377  0.2600
 1814SOL     OW 7253   2.507   2.349   3.078  0.2204  0.1085  0.0991
 1814SOL    HW2 7254   2.522   2.327   3.170 -2.5232 -0.1373  0.5354
 1814SOL    HW3 7255   2.497   2.265   3.034  0.8280  0.2456 -0.3136
 1814SOL    MW4 7256   2.508   2.335   3.084 -0.0614  0.0942  0.1022
 1815SOL     OW 7257   2.272   2.487   3.041 -0.0052 -0.2516  0.0666
 1815SOL    HW2 7258   2.266   2.577   3.074 -0.5743  0.3280 -1.5389
 1815SOL    HW3 7259   2.360   2.459   3.064 -0.1076  0.4054  1.3296
 1815SOL    MW4 7260   2.283   2.495   3.048 -0.0938 -0.0885  0.0214
 1816SOL     OW 7261   2.254   2.724   3.164 -0.4548  0.0151  0.1434
 1816SOL    HW2 7262   2.335   2.759   3.127 -0.3253 -0.8383 -0.3870
 1816SOL    HW3 7263   2.184   2.765   3.113 -0.2642 -1.5239 -1.3863
 1816SOL    MW4 7264   2.255   2.734   3.152 -0.4126 -0.3005 -0.1284
 1817SOL     OW 7265   2.466   2.826   3.017 -0.6178  0.1947  0.3692
 1817SOL    HW2 7266   2.450   2.919   3.030  2.2247  0.9131 -0.7874
 1817SOL    HW3 7267   2.468   2.815   2.922  1.9063 -0.4532  0.4663
 1817SOL    MW4 7268   2.464   2.837   3.006  0.0903  0.2040  0.2294
 1818SOL     OW 7269   2.444   3.098   3.123 -0.2401  0.4508  0.0216
 1818SOL    HW2 7270   2.533   3.124   3.098 -0.2742 -1.3293 -2.0416
 1818SOL    HW3 7271   2.387   3.147   3.064 -0.5340 -0.2667 -0.2869
 1818SOL    MW4 7272   2.448   3.108   3.112 -0.2834  0.1213 -0.2913
 1819SOL     OW 7273   2.260   3.252   3.002 -0.3879  0.4662  0.2003
 1819SOL    HW2 7274   2.259   3.338   3.043 -0.3829  0.6875 -0.2635
 1819SOL    HW3 7275   2.185   3.206   3.040 -0.9545  1.0057 -0.2671
 1819SOL    MW4 7276   2.250   3.257   3.013 -0.4620  0.5666  0.0774
 1820SOL     OW 7277   2.257   3.500   3.129  0.4896 -0.3534  0.2461
 1820SOL    HW2 7278   2.338   3.528   3.084  1.3873 -3.3023 -0.1022
 1820SOL    HW3 7279   2.190   3.561   3.097  2.3609  1.5170 -0.2626
 1820SOL    MW4 7280   2.259   3.512   3.119  0.8550 -0.4957  0.1330
 1821SOL     OW 7281   2.493   3.580   2.970  0.0390  0.4463 -0.0128
 1821SOL    HW2 7282   2.551   3.539   3.034  0.1097 -0.3874 -0.6054
 1821SOL    HW3 7283   2.470   3.664   3.009  0.4037  0.1159  0.9242
 1821SOL    MW4 7284   2.498   3.586   2.983  0.0964  0.2927  0.0326
 1822SOL     OW 7285   2.433   3.841   3.096 -0.1358 -0.1015  0.0257
 1822SOL    HW2 7286   2.452   3.861   3.187 -0.9448  0.2096  0.1321
 1822SOL    HW3 7287   2.502   3.886   3.047  1.2950 -1.6752  0.5591
 1822SOL    MW4 7288   2.445   3.850   3.101 -0.0538 -0.2681  0.1101
 1823SOL     OW 7289   2.236   4.041   3.037 -0.0526 -0.1336  0.4482
 1823SOL    HW2 7290   2.310   3.982   3.052  0.2731 -0.3361 -1.7761
 1823SOL    HW3 7291   2.161   3.995   3.074  0.7545 -0.4153  1.7444
 1823SOL    MW4 7292   2.236   4.027   3.044  0.0968 -0.1975  0.3258
 1824SOL     OW 7293   2.231   4.298   3.143  0.9074 -0.3749 -0.2612
 1824SOL    HW2 7294   2.219   4.206   3.117 -0.5329 -0.5469  0.9262
 1824SOL    HW3 7295   2.158   4.343   3.101  1.3021  0.1337 -0.3939
 1824SOL    MW4 7296   2.220   4.291   3.134  0.7694 -0.3305 -0.1221
 1825SOL     OW 7297   2.463   4.443   3.026  0.0538  0.2601 -0.0685
 1825SOL    HW2 7298   2.387   4.387   3.042  1.0939 -0.8455  1.0266
 1825SOL    HW3 7299   2.477   4.439   2.931 -0.8782 -0.0005 -0.1972
 1825SOL    MW4 7300   2.455   4.435   3.016  0.0681  0.0798  0.0590
 1826SOL     OW 7301   2.895   4.651   3.103 -0.0822 -0.5123 -0.0129
 1826SOL    HW2 7302   2.969   4.698   3.064 -0.5046  0.0087 -0.1817
 1826SOL    HW3 7303   2.907   4.560   3.074  1.0554 -0.6323  0.7961
 1826SOL    MW4 7304   2.906   4.645   3.094  0.0122 -0.4594  0.0716
 1827SOL     OW 7305   2.677   0.135   2.994  0.3950  0.1289 -0.1697
 1827SOL    HW2 7306   2.749   0.082   3.029 -0.4302 -0.4186  0.7156
 1827SOL    HW3 7307   2.601   0.111   3.047  0.0010  2.2134  0.2748
 1827SOL    MW4 7308   2.676   0.125   3.006  0.2341  0.3317  0.0058
 1828SOL     OW 7309   2.708   0.398   3.131  0.0595  0.2814  0.0427
 1828SOL    HW2 7310   2.682   0.310   3.102  1.3704  0.5266 -1.9390
 1828SOL    HW3 7311   2.627   0.449   3.130 -0.3671 -0.3968 -0.7281
 1828SOL    MW4 7312   2.694   0.393   3.127  0.1761  0.2243 -0.3205
 1829SOL     OW 7313   2.935   0.473   2.994 -0.5756 -0.1608 -0.2877
 1829SOL    HW2 7314   2.852   0.452   3.037 -0.3403 -1.0159 -0.2455
 1829SOL    HW3 7315   2.916   0.468   2.901 -1.1354  1.8878 -0.3017
 1829SOL    MW4 7316   2.922   0.469   2.988 -0.6184 -0.0034 -0.2840
 1830SOL     OW 7317   2.980   0.731   3.064  0.6026 -0.0420  0.4931
 1830SOL    HW2 7318   2.952   0.719   3.155 -1.4835  0.5562 -0.0484
 1830SOL    HW3 7319   2.978   0.643   3.026  2.0940 -0.3821  1.1930
 1830SOL    MW4 7320   2.976   0.717   3.071  0.5241 -0.0080  0.5140
 1831SOL     OW 7321   2.736   0.858   3.024  0.1780  0.2478 -0.1970
 1831SOL    HW2 7322   2.739   0.953   3.038 -0.3678  0.2589 -0.1685
 1831SOL    HW3 7323   2.828   0.831   3.026  0.5015  1.0909 -2.5338
 1831SOL    MW4 7324   2.749   0.867   3.026  0.1487  0.3605 -0.5016
 1832SOL     OW 7325   2.690   1.126   3.065 -0.2839  0.1965 -0.0412
 1832SOL    HW2 7326   2.770   1.178   3.054 -0.6294  0.7418 -0.0233
 1832SOL    HW3 7327   2.619   1.188   3.048 -0.6777 -0.6690 -1.5921
 1832SOL    MW4 7328   2.691   1.141   3.062 -0.3814  0.1543 -0.2434
 1833SOL     OW 7329   2.914   1.280   3.027 -0.0703 -0.3219 -0.1901
 1833SOL    HW2 7330   2.996   1.236   3.051  0.1139 -0.4704 -1.0935
 1833SOL    HW3 7331   2.922   1.367   3.066  1.3002  0.2881 -1.7953
 1833SOL    MW4 7332   2.926   1.285   3.035  0.1349 -0.2610 -0.5211
 1834SOL     OW 7333   2.895   1.553   3.125 -0.6512 -0.3499 -0.3101
 1834SOL    HW2 7334   2.902   1.548   3.221  0.8392  1.1546 -0.3128
 1834SOL    HW3 7335   2.978   1.592   3.098 -1.1271 -0.6498 -2.2186
 1834SOL    MW4 7336   2.907   1.557   3.134 -0.5173 -0.1910 -0.5623
 1835SOL     OW 7337   2.708   1.708   2.990  0.3707 -0.0888 -0.4531
 1835SOL    HW2 7338   2.785   1.670   3.032  1.0226  0.6575 -0.9707
 1835SOL    HW3 7339   2.634   1.661   3.029  1.0529 -0.4682  0.3980
 1835SOL    MW4 7340   2.709   1.697   3.000  0.5467 -0.0404 -0.4091
 1836SOL     OW 7341   2.714   1.948   3.123 -0.4288  0.0104  0.2147
 1836SOL    HW2 7342   2.791   1.995   3.092 -1.0284  0.8710  0.0117
 1836SOL    HW3 7343   2.723   1.860   3.085  0.7319 -0.0725  0.6547
 1836SOL    MW4 7344   2.726   1.943   3.114 -0.3547  0.1130  0.2459
 1837SOL     OW 7345   2.931   2.060   2.997 -0.5955 -0.3420 -0.0662
 1837SOL    HW2 7346   2.953   2.148   3.030 -0.1682 -0.3457 -0.3337
 1837SOL    HW3 7347   2.934   2.069   2.902  0.0322 -0.7868 -0.0921
 1837SOL    MW4 7348   2.935   2.073   2.989 -0.4563 -0.4012 -0.1049
 1838SOL     OW 7349   2.940   2.299   3.122  0.2694  0.1378 -0.1129
 1838SOL    HW2 7350   3.020   2.339   3.089  0.0665  0.9086  0.3205
 1838SOL    HW3 7351   2.870   2.359   3.096  0.2474  1.5494  2.9600
 1838SOL    MW4 7352   2.941   2.312   3.114  0.2397  0.4257  0.3497
 1839SOL     OW 7353   2.752   2.476   3.038  0.0006 -0.7677 -0.2572
 1839SOL    HW2 7354   2.734   2.548   3.098  1.2745 -2.2076  1.9707
 1839SOL    HW3 7355   2.669   2.430   3.030  0.1362 -1.4271  1.6959
 1839SOL    MW4 7356   2.739   2.479   3.045  0.1866 -1.0447  0.2944
 1840SOL     OW 7357   2.720   2.745   3.125  0.0096 -0.1241  0.0019
 1840SOL    HW2 7358   2.712   2.746   3.221  1.6817  0.9055  0.1537
 1840SOL    HW3 7359   2.634   2.770   3.093 -0.4713 -0.1645  1.2449
 1840SOL    MW4 7360   2.708   2.748   3.134  0.1667  0.0064  0.1859
 1841SOL     OW 7361   2.964   2.855   3.011  0.0930 -0.1047  0.5511
 1841SOL    HW2 7362   3.038   2.798   3.033  0.7397  0.6388  0.3689
 1841SOL    HW3 7363   2.887   2.807   3.039  0.3344 -2.7913 -3.0337
 1841SOL    MW4 7364   2.964   2.841   3.017  0.2101 -0.3610  0.0541
 1842SOL     OW 7365   2.894   3.085   3.140  0.3971  0.0082 -0.3103
 1842SOL    HW2 7366   2.820   3.122   3.094  0.4803  0.7346  0.1410
 1842SOL    HW3 7367   2.917   3.007   3.090  0.2842  0.6154 -1.3062
 1842SOL    MW4 7368   2.887   3.079   3.127  0.3932  0.1841 -0.3821
 1843SOL     OW 7369   2.679   3.199   3.026 -0.2334 -0.4782 -0.0933
 1843SOL    HW2 7370   2.672   3.292   3.050  0.1983 -0.3907 -0.3023
 1843SOL    HW3 7371   2.686   3.200   2.931 -1.8807 -0.8206 -0.2195
 1843SOL    MW4 7372   2.679   3.212   3.017 -0.3938 -0.5118 -0.1375
 1844SOL     OW 7373   2.674   3.468   3.131 -0.3183  0.2697  0.1310
 1844SOL    HW2 7374   2.667   3.472   3.226 -0.2416  0.1283  0.1414
 1844SOL    HW3 7375   2.756   3.512   3.111  0.5940 -1.3661  0.2545
 1844SOL    MW4 7376   2.684   3.474   3.141 -0.1878  0.0352  0.1487
 1845SOL     OW 7377   2.896   3.622   3.045  0.0474  0.1603  0.5755
 1845SOL    HW2 7378   2.975   3.571   3.061 -0.0332 -0.1157  0.0939
 1845SOL    HW3 7379   2.911   3.704   3.091  1.0935  0.5527 -0.4276
 1845SOL    MW4 7380   2.908   3.626   3.053  0.1748  0.1757  0.3796
 1846SOL     OW 7381   2.911   3.904   3.089 -0.4042 -0.0092  0.1656
 1846SOL    HW2 7382   2.896   3.900   3.184 -0.2002 -1.3624  0.1529
 1846SOL    HW3 7383   2.828   3.932   3.053  0.0744  2.4988  0.8864
 1846SOL    MW4 7384   2.898   3.907   3.097 -0.3141  0.1431  0.2590
 1847SOL     OW 7385   2.646   3.984   2.981  0.0193 -0.0544 -0.1799
 1847SOL    HW2 7386   2.636   4.067   3.027 -1.1622 -0.2326 -0.1015
 1847SOL    HW3 7387   2.667   4.009   2.891  1.1493  0.3052  0.1746
 1847SOL    MW4 7388   2.648   3.999   2.975  0.0125 -0.0304 -0.1228
 1848SOL     OW 7389   2.659   4.261   3.070 -0.0205 -0.8572  0.1129
 1848SOL    HW2 7390   2.657   4.268   3.166 -1.3810 -0.3720  0.0584
 1848SOL    HW3 7391   2.597   4.327   3.040  0.3182 -1.0882 -1.1071
 1848SOL    MW4 7392   2.650   4.271   3.079 -0.1553 -0.8237 -0.0552
 1849SOL     OW 7393   2.883   4.386   2.992  0.2418 -0.6656  0.6302
 1849SOL    HW2 7394   2.961   4.334   3.006  0.5605  0.3469  2.7641
 1849SOL    HW3 7395   2.811   4.331   3.023 -0.0455 -1.9790 -2.2144
 1849SOL    MW4 7396   2.884   4.372   2.998  0.2460 -0.7053  0.5364
 1850SOL     OW 7397   3.354   4.619   3.106 -0.0911  0.6738  0.2955
 1850SOL    HW2 7398   3.434   4.644   3.060 -1.1406  1.8120 -0.9432
 1850SOL    HW3 7399   3.326   4.538   3.063  0.7917 -0.1370  1.2288
 1850SOL    MW4 7400   3.361   4.612   3.094 -0.1131  0.7170  0.2552
 1851SOL     OW 7401   3.130   0.112   3.016  0.1723  0.0063 -0.0826
 1851SOL    HW2 7402   3.138   0.204   3.040 -1.1000 -0.3006  1.6414
 1851SOL    HW3 7403   3.212   0.072   3.047  0.6027  0.5073 -0.5766
 1851SOL    MW4 7404   3.142   0.119   3.023  0.0613  0.0319  0.0797
 1852SOL     OW 7405   3.159   0.381   3.105  0.1316 -0.2380 -0.3814
 1852SOL    HW2 7406   3.229   0.440   3.076  0.9043 -1.3566 -0.8470
 1852SOL    HW3 7407   3.081   0.412   3.058  0.2099  1.2707  0.4499
 1852SOL    MW4 7408   3.158   0.393   3.095  0.2439 -0.1865 -0.3332
 1853SOL     OW 7409   3.397   0.487   3.031 -0.5600 -0.2577 -0.4533
 1853SOL    HW2 7410   3.455   0.416   3.059 -0.1443 -0.1326 -0.9842
 1853SOL    HW3 7411   3.408   0.490   2.936 -0.9044  0.2348 -0.4777
 1853SOL    MW4 7412   3.406   0.478   3.022 -0.5506 -0.1762 -0.5265
 1854SOL     OW 7413   3.406   0.772   3.072 -0.0165 -0.2254  0.2595
 1854SOL    HW2 7414   3.384   0.762   3.165 -0.5962 -0.2234  0.1279
 1854SOL    HW3 7415   3.416   0.682   3.041 -1.5270 -0.3064 -0.0627
 1854SOL    MW4 7416   3.404   0.759   3.081 -0.2923 -0.2358  0.1996
 1855SOL     OW 7417   3.193   0.887   2.982 -0.3627 -0.2233 -0.4451
 1855SOL    HW2 7418   3.270   0.842   3.015  0.6351  0.3562 -1.9247
 1855SOL    HW3 7419   3.119   0.836   3.014  0.6620 -1.2660  0.2735
 1855SOL    MW4 7420   3.193   0.875   2.990 -0.0959 -0.2844 -0.5455
 1856SOL     OW 7421   3.142   1.142   3.076  0.5810  0.7192 -0.1816
 1856SOL    HW2 7422   3.209   1.197   3.035  1.0240 -0.1758 -0.6796
 1856SOL    HW3 7423   3.158   1.055   3.041 -1.4588  0.6630 -1.0495
 1856SOL    MW4 7424   3.153   1.138   3.066  0.3703  0.5937 -0.3618
 1857SOL     OW 7425   3.339   1.309   2.967  0.9879 -0.0686 -0.2426
 1857SOL    HW2 7426   3.396   1.244   3.008 -0.3203 -1.6799 -0.8773
 1857SOL    HW3 7427   3.336   1.381   3.030  0.4309 -1.7331  1.7311
 1857SOL    MW4 7428   3.346   1.310   2.981  0.7418 -0.5008 -0.0659
 1858SOL     OW 7429   3.318   1.526   3.120  0.3685  0.0852 -0.1096
 1858SOL    HW2 7430   3.319   1.537   3.215  0.1463 -2.1758  0.1908
 1858SOL    HW3 7431   3.404   1.554   3.091  1.4940 -2.0245  1.1218
 1858SOL    MW4 7432   3.329   1.531   3.129  0.4877 -0.4915  0.0925
 1859SOL     OW 7433   3.118   1.668   3.034  0.1255 -0.2285  0.4004
 1859SOL    HW2 7434   3.195   1.620   3.062 -0.8317 -1.5975  0.7379
 1859SOL    HW3 7435   3.114   1.655   2.940 -0.5643 -1.4724  0.5957
 1859SOL    MW4 7436   3.127   1.660   3.026 -0.0918 -0.5732  0.4707
 1860SOL     OW 7437   3.132   1.939   3.138 -0.4644 -0.0901  0.2835
 1860SOL    HW2 7438   3.147   1.852   3.100 -0.4267 -0.7436  1.7551
 1860SOL    HW3 7439   3.072   1.982   3.077  2.9979  0.5367 -2.8390
 1860SOL    MW4 7440   3.126   1.933   3.125 -0.0027 -0.0936  0.0657
 1861SOL     OW 7441   3.380   2.067   3.034 -0.0296 -0.4590  0.2564
 1861SOL    HW2 7442   3.440   1.999   3.066 -0.4156 -0.8808  0.0962
 1861SOL    HW3 7443   3.294   2.039   3.066 -0.3879 -0.7489 -0.9306
 1861SOL    MW4 7444   3.377   2.054   3.043 -0.1278 -0.5529  0.0787
 1862SOL     OW 7445   3.436   2.323   3.111  0.3594  0.5987 -0.4376
 1862SOL    HW2 7446   3.429   2.320   3.206 -0.3193  0.5104 -0.4829
 1862SOL    HW3 7447   3.409   2.235   3.083  0.8608  0.5252 -0.6937
 1862SOL    MW4 7448   3.432   2.311   3.119  0.3360  0.5773 -0.4774
 1863SOL     OW 7449   3.197   2.434   3.028 -0.0935  0.0306  0.0007
 1863SOL    HW2 7450   3.270   2.390   3.071 -0.4415 -0.7352 -0.1781
 1863SOL    HW3 7451   3.214   2.423   2.934 -0.8450 -0.8617 -0.0453
 1863SOL    MW4 7452   3.209   2.427   3.021 -0.2385 -0.1882 -0.0289
 1864SOL     OW 7453   3.174   2.712   3.108 -0.1315  0.2293 -0.5425
 1864SOL    HW2 7454   3.145   2.727   3.198 -1.3059  0.7434 -1.0084
 1864SOL    HW3 7455   3.155   2.619   3.092  0.9711 -0.1129  0.0571
 1864SOL    MW4 7456   3.168   2.701   3.118 -0.1410  0.2520 -0.5249
 1865SOL     OW 7457   3.402   2.878   2.999 -0.2950  0.1106  0.0472
 1865SOL    HW2 7458   3.381   2.971   3.005  0.2618  0.2622 -0.3358
 1865SOL    HW3 7459   3.329   2.834   3.044 -1.0167  0.6766 -0.5587
 1865SOL    MW4 7460   3.390   2.885   3.006 -0.3168  0.2053 -0.0833
 1866SOL     OW 7461   3.369   3.155   3.102  0.1435  0.1724 -0.4358
 1866SOL    HW2 7462   3.378   3.127   3.193 -0.6815  1.7502  0.1563
 1866SOL    HW3 7463   3.277   3.180   3.094 -0.0348 -0.9395 -2.0011
 1866SOL    MW4 7464   3.358   3.155   3.113  0.0111  0.2339 -0.5642
 1867SOL     OW 7465   3.109   3.212   3.031 -0.0867 -0.2930 -0.3190
 1867SOL    HW2 7466   3.029   3.169   3.060 -0.4616  0.6395  0.0429
 1867SOL    HW3 7467   3.108   3.204   2.935 -0.4428 -0.5908 -0.2893
 1867SOL    MW4 7468   3.099   3.206   3.022 -0.1831 -0.2092 -0.2673
 1868SOL     OW 7469   3.125   3.498   3.110 -0.1013  0.3017  0.0538
 1868SOL    HW2 7470   3.202   3.537   3.070  1.0651 -0.7166  1.2724
 1868SOL    HW3 7471   3.132   3.405   3.089 -1.0691  0.2165  0.0726
 1868SOL    MW4 7472   3.136   3.491   3.102 -0.0751  0.1561  0.2171
 1869SOL     OW 7473   3.400   3.582   2.985 -0.4723  0.1796 -0.9870
 1869SOL    HW2 7474   3.472   3.547   3.038 -0.9676 -1.3091 -1.2736
 1869SOL    HW3 7475   3.404   3.677   2.999 -1.2580 -0.2464  2.5665
 1869SOL    MW4 7476   3.410   3.590   2.994 -0.6413 -0.0730 -0.5560
 1870SOL     OW 7477   3.391   3.852   3.061 -0.1325 -0.0813 -0.2286
 1870SOL    HW2 7478   3.390   3.872   3.154 -0.6394 -0.3931 -0.1634
 1870SOL    HW3 7479   3.304   3.878   3.030 -0.0542 -0.2111 -0.5586
 1870SOL    MW4 7480   3.379   3.858   3.069 -0.1891 -0.1395 -0.2636
 1871SOL     OW 7481   3.149   3.978   2.997  0.3957  0.1296  0.3075
 1871SOL    HW2 7482   3.069   3.936   3.029  0.2468 -0.2088 -0.4941
 1871SOL    HW3 7483   3.137   3.982   2.902  1.8108 -0.9202  0.0769
 1871SOL    MW4 7484   3.137   3.973   2.989  0.5627 -0.0536  0.1713
 1872SOL     OW 7485   3.088   4.235   3.088  0.1441  0.4455 -0.2364
 1872SOL    HW2 7486   3.103   4.244   3.183  1.2455 -0.3729 -0.3211
 1872SOL    HW3 7487   3.105   4.142   3.070  0.5917  0.7353 -1.3467
 1872SOL    MW4 7488   3.092   4.224   3.099  0.3484  0.3757 -0.3940
 1873SOL     OW 7489   3.325   4.359   2.971 -0.1388  0.0615 -0.5395
 1873SOL    HW2 7490   3.400   4.337   3.026 -0.4000 -0.5133 -0.4031
 1873SOL    HW3 7491   3.251   4.316   3.014 -0.6197  0.9881 -0.4275
 1873SOL    MW4 7492   3.325   4.350   2.984 -0.2367  0.1079 -0.5067
 1874SOL     OW 7493   3.832   4.663   3.105  0.0622 -0.4809  0.7636
 1874SOL    HW2 7494   3.843   4.574   3.073  0.3672 -0.3670  0.5551
 1874SOL    HW3 7495   3.748   4.692   3.069 -1.0142 -1.4064  2.4987
 1874SOL    MW4 7496   3.822   4.655   3.096 -0.0396 -0.5879  0.9650
 1875SOL     OW 7497   3.589   0.072   2.951  0.3944  0.1909  0.1556
 1875SOL    HW2 7498   3.593   0.156   2.998 -0.2913  0.0848  0.4094
 1875SOL    HW3 7499   3.579   0.097   2.859 -1.7586  0.3995  0.4176
 1875SOL    MW4 7500   3.589   0.087   2.945  0.0199  0.2045  0.2237
 1876SOL     OW 7501   3.601   0.307   3.087  0.4870 -0.1183  0.2103
 1876SOL    HW2 7502   3.599   0.310   3.183  0.7112 -0.2173  0.2178
 1876SOL    HW3 7503   3.677   0.359   3.063  0.8096 -0.6295  0.1108
 1876SOL    MW4 7504   3.611   0.314   3.096  0.5592 -0.1988  0.1982
 1877SOL     OW 7505   3.816   0.470   3.011 -0.0709  0.1858 -0.1519
 1877SOL    HW2 7506   3.891   0.439   3.062 -0.2653 -1.6476 -0.9375
 1877SOL    HW3 7507   3.809   0.563   3.032  1.4429  0.0193  1.1536
 1877SOL    MW4 7508   3.825   0.478   3.020  0.1032 -0.0781 -0.0833
 1878SOL     OW 7509   3.820   0.752   3.078  0.1293  0.1199 -0.0815
 1878SOL    HW2 7510   3.818   0.765   3.173 -1.2755  1.1027 -0.2327
 1878SOL    HW3 7511   3.896   0.803   3.049  0.9200 -0.6733  0.5851
 1878SOL    MW4 7512   3.830   0.761   3.087  0.0482  0.1449 -0.0135
 1879SOL     OW 7513   3.605   0.917   2.959 -0.0510  0.0344 -0.0743
 1879SOL    HW2 7514   3.687   0.878   2.990 -1.1565 -2.3208  0.0828
 1879SOL    HW3 7515   3.537   0.865   3.003 -1.6238  0.7342 -1.6277
 1879SOL    MW4 7516   3.607   0.905   2.969 -0.4044 -0.1840 -0.2585
 1880SOL     OW 7517   3.562   1.169   3.084 -0.2973  0.1799  0.1749
 1880SOL    HW2 7518   3.649   1.209   3.089  0.2893 -1.1590  0.9748
 1880SOL    HW3 7519   3.579   1.079   3.053 -0.9617 -1.3834  4.1283
 1880SOL    MW4 7520   3.576   1.162   3.080 -0.3076 -0.2030  0.8021
 1881SOL     OW 7521   3.828   1.264   3.056 -0.0126  0.0073 -0.5024
 1881SOL    HW2 7522   3.819   1.359   3.064  1.8030  0.1363  0.1571
 1881SOL    HW3 7523   3.813   1.247   2.963 -0.3187  0.9279 -0.6301
 1881SOL    MW4 7524   3.825   1.274   3.045  0.1866  0.1458 -0.4322
 1882SOL     OW 7525   3.818   1.536   3.095 -0.0061  0.4979 -0.4339
 1882SOL    HW2 7526   3.831   1.540   3.190  1.0501 -3.3686 -0.3465
 1882SOL    HW3 7527   3.730   1.572   3.082  0.3428  2.2902  1.8228
 1882SOL    MW4 7528   3.808   1.541   3.106  0.1793  0.2242 -0.1246
 1883SOL     OW 7529   3.569   1.599   3.063 -0.1303 -0.5713  0.2354
 1883SOL    HW2 7530   3.594   1.688   3.090 -0.6116 -0.1139 -0.7888
 1883SOL    HW3 7531   3.587   1.598   2.969 -0.1699 -1.5521  0.2419
 1883SOL    MW4 7532   3.575   1.611   3.054 -0.1990 -0.6403  0.1012
 1884SOL     OW 7533   3.581   1.891   3.126  0.2642  0.1625  0.7241
 1884SOL    HW2 7534   3.579   1.894   3.222  0.9713  0.2841  0.7347
 1884SOL    HW3 7535   3.655   1.945   3.102  0.2600 -0.1038  0.1121
 1884SOL    MW4 7536   3.590   1.898   3.135  0.3569  0.1434  0.6447
 1885SOL     OW 7537   3.804   2.038   3.055 -0.6430  0.1469 -0.0544
 1885SOL    HW2 7538   3.840   2.127   3.064 -0.0267 -0.0309 -0.7629
 1885SOL    HW3 7539   3.788   2.028   2.962 -0.4223 -0.6114 -0.0106
 1885SOL    MW4 7540   3.807   2.049   3.044 -0.5325  0.0234 -0.1421
 1886SOL     OW 7541   3.831   2.320   3.107 -0.0132  0.1851  0.3852
 1886SOL    HW2 7542   3.817   2.318   3.201 -1.2467  2.5531  0.3014
 1886SOL    HW3 7543   3.746   2.346   3.071  0.7900  0.5651 -1.2715
 1886SOL    MW4 7544   3.818   2.323   3.115 -0.0700  0.5476  0.1556
 1887SOL     OW 7545   3.621   2.470   2.976 -0.5289  0.7280 -0.3384
 1887SOL    HW2 7546   3.640   2.544   3.033 -0.2199  1.1625 -1.0008
 1887SOL    HW3 7547   3.562   2.414   3.027 -0.7099  1.3971  0.1835
 1887SOL    MW4 7548   3.615   2.472   2.990 -0.5120  0.8736 -0.3570
 1888SOL     OW 7549   3.599   2.727   3.107 -0.5941 -0.1750 -0.2941
 1888SOL    HW2 7550   3.676   2.760   3.061 -0.1432 -1.3285 -0.3908
 1888SOL    HW3 7551   3.524   2.768   3.063 -0.0572  0.5527 -0.5265
 1888SOL    MW4 7552   3.599   2.737   3.095 -0.4637 -0.2312 -0.3376
 1889SOL     OW 7553   3.838   2.813   3.039  0.0322 -0.4714 -0.1735
 1889SOL    HW2 7554   3.802   2.898   3.066 -0.3940 -0.2616 -1.3663
 1889SOL    HW3 7555   3.843   2.818   2.944  1.4762 -1.2152 -0.1507
 1889SOL    MW4 7556   3.834   2.825   3.030  0.1665 -0.5418 -0.3278
 1890SOL     OW 7557   3.790   3.072   3.109 -0.2694 -0.4217  0.3908
 1890SOL    HW2 7558   3.876   3.106   3.082  0.2984 -1.7402  0.4888
 1890SOL    HW3 7559   3.728   3.140   3.083  0.7061  0.1097 -0.5944
 1890SOL    MW4 7560   3.793   3.086   3.102 -0.0658 -0.5255  0.2737
 1891SOL     OW 7561   3.617   3.263   3.000 -0.2971 -0.4179  0.6747
 1891SOL    HW2 7562   3.534   3.233   3.038 -1.4941  2.5566  0.5094
 1891SOL    HW3 7563   3.608   3.246   2.907 -1.4826  1.5582  0.4131
 1891SOL    MW4 7564   3.605   3.257   2.993 -0.6114  0.2352  0.6184
 1892SOL     OW 7565   3.628   3.510   3.127  0.8179 -0.2322  0.1067
 1892SOL    HW2 7566   3.694   3.562   3.081  0.7552 -1.1246 -1.0224
 1892SOL    HW3 7567   3.637   3.422   3.091  0.8365 -0.9973  1.8989
 1892SOL    MW4 7568   3.638   3.505   3.116  0.8121 -0.4509  0.1942
 1893SOL     OW 7569   3.847   3.612   2.986  0.3345 -0.5922 -0.2862
 1893SOL    HW2 7570   3.841   3.702   3.019 -0.3504 -0.8328  0.2517
 1893SOL    HW3 7571   3.826   3.620   2.893 -0.0894 -0.2400 -0.1639
 1893SOL    MW4 7572   3.844   3.625   2.978  0.1882 -0.5775 -0.1991
 1894SOL     OW 7573   3.819   3.870   3.110 -0.0839  0.2567 -0.4075
 1894SOL    HW2 7574   3.846   3.875   3.201  0.1728  1.5485 -0.5438
 1894SOL    HW3 7575   3.760   3.944   3.098  0.0807  0.2475 -1.3505
 1894SOL    MW4 7576   3.815   3.880   3.120 -0.0283  0.4259 -0.5499
 1895SOL     OW 7577   3.606   4.039   3.022 -0.1189  0.2093 -0.0829
 1895SOL    HW2 7578   3.524   3.993   3.039  1.7605 -2.3706  2.7278
 1895SOL    HW3 7579   3.608   4.050   2.927 -2.1904 -2.6989 -0.5410
 1895SOL    MW4 7580   3.596   4.034   3.012 -0.1443 -0.5148  0.2275
 1896SOL     OW 7581   3.566   4.292   3.096  0.7329  0.1509  0.3220
 1896SOL    HW2 7582   3.640   4.342   3.061  0.6952  0.3378  0.5120
 1896SOL    HW3 7583   3.584   4.202   3.069  1.0265  0.1967  0.3569
 1896SOL    MW4 7584   3.578   4.287   3.088  0.7666  0.1816  0.3517
 1897SOL     OW 7585   3.815   4.396   3.030 -0.5226 -0.4329  0.3428
 1897SOL    HW2 7586   3.882   4.334   3.059  0.5731  0.5738 -0.0273
 1897SOL    HW3 7587   3.829   4.405   2.936 -0.4860  0.6180  0.4439
 1897SOL    MW4 7588   3.825   4.389   3.022 -0.3732 -0.1614  0.3073
 1898SOL     OW 7589   4.266   4.611   3.157 -0.0419 -0.2900  0.6219
 1898SOL    HW2 7590   4.246   4.604   3.250 -1.3340 -0.0109  0.3682
 1898SOL    HW3 7591   4.269   4.520   3.126 -0.1583 -0.3587  0.8167
 1898SOL    MW4 7592   4.264   4.598   3.165 -0.2277 -0.2622  0.6141
 1899SOL     OW 7593   4.077   0.101   3.006 -0.2662 -0.1772 -0.3004
 1899SOL    HW2 7594   4.136   0.064   3.071  0.7782  0.8574 -0.6479
 1899SOL    HW3 7595   3.989   0.076   3.036  0.2724 -0.6622  0.8901
 1899SOL    MW4 7596   4.073   0.093   3.019 -0.0574 -0.1047 -0.1892
 1900SOL     OW 7597   4.071   0.370   3.112 -0.4357  0.6129 -0.7425
 1900SOL    HW2 7598   4.145   0.410   3.068 -0.1240 -0.2319 -0.9897
 1900SOL    HW3 7599   4.063   0.284   3.072 -0.7149  0.1884  0.2230
 1900SOL    MW4 7600   4.079   0.364   3.101 -0.4314  0.4454 -0.6477
 1901SOL     OW 7601   4.307   0.497   3.027 -0.0071  0.1402  0.3136
 1901SOL    HW2 7602   4.305   0.582   3.069 -2.6072 -0.5962  1.7842
 1901SOL    HW3 7603   4.288   0.515   2.935 -0.2717  1.1697  0.5693
 1901SOL    MW4 7604   4.305   0.510   3.020 -0.3851  0.1789  0.5414
 1902SOL     OW 7605   4.267   0.767   3.101 -0.4336 -0.4472  0.3664
 1902SOL    HW2 7606   4.191   0.811   3.064 -0.4248  0.7127  1.7125
 1902SOL    HW3 7607   4.343   0.815   3.067 -0.4275  0.6663  1.9194
 1902SOL    MW4 7608   4.267   0.779   3.091 -0.4316 -0.1472  0.7489
 1903SOL     OW 7609   4.039   0.897   2.971 -0.1923 -0.3216  0.3084
 1903SOL    HW2 7610   4.049   0.985   3.007 -0.5494  0.6387 -1.8490
 1903SOL    HW3 7611   4.054   0.908   2.877 -0.6025 -2.5078 -0.0402
 1903SOL    MW4 7612   4.042   0.910   2.964 -0.2936 -0.4834 -0.0223
 1904SOL     OW 7613   4.076   1.143   3.093 -0.0298  0.0018 -0.4816
 1904SOL    HW2 7614   4.079   1.127   3.187  0.8720  0.6788 -0.3804
 1904SOL    HW3 7615   3.995   1.191   3.079  1.1163  2.2532  0.3570
 1904SOL    MW4 7616   4.066   1.147   3.103  0.2404  0.3882 -0.3576
 1905SOL     OW 7617   4.308   1.261   3.030  0.0913  0.2310  0.2003
 1905SOL    HW2 7618   4.217   1.234   3.040 -0.0581  0.7143  0.1752
 1905SOL    HW3 7619   4.321   1.268   2.935  0.2168 -0.0565  0.1974
 1905SOL    MW4 7620   4.298   1.259   3.019  0.0881  0.2568  0.1966
 1906SOL     OW 7621   4.287   1.521   3.086 -0.3649  0.1384 -0.3039
 1906SOL    HW2 7622   4.198   1.542   3.058 -1.5248  0.1666  3.1638
 1906SOL    HW3 7623   4.301   1.431   3.059 -1.1771  0.3616 -1.4700
 1906SOL    MW4 7624   4.277   1.512   3.079 -0.6251  0.1716 -0.0002
 1907SOL     OW 7625   4.049   1.628   3.013 -0.2484  0.3932  0.1956
 1907SOL    HW2 7626   4.060   1.706   3.067  0.0233  1.5498 -1.4755
 1907SOL    HW3 7627   3.962   1.595   3.036 -0.3734  1.1966  0.9025
 1907SOL    MW4 7628   4.039   1.634   3.023 -0.2290  0.6518  0.0684
 1908SOL     OW 7629   4.033   1.888   3.153 -0.0832  0.1268 -0.6715
 1908SOL    HW2 7630   4.115   1.921   3.115 -0.2910 -0.6489 -1.8429
 1908SOL    HW3 7631   3.964   1.928   3.101 -0.5797  2.8971  2.0364
 1908SOL    MW4 7632   4.035   1.897   3.141 -0.1761  0.3900 -0.4688
 1909SOL     OW 7633   4.239   2.035   3.040 -0.1192  0.1728  0.3380
 1909SOL    HW2 7634   4.245   2.121   3.080  1.1053  0.0110  0.5376
 1909SOL    HW3 7635   4.227   2.052   2.947 -1.5362  0.5512  0.5830
 1909SOL    MW4 7636   4.238   2.048   3.033 -0.1446  0.2014  0.3966
 1910SOL     OW 7637   4.244   2.307   3.095  0.2861 -0.0675 -0.1013
 1910SOL    HW2 7638   4.178   2.366   3.058 -1.6601 -1.7116  0.7069
 1910SOL    HW3 7639   4.327   2.340   3.060 -1.0675  1.2051 -2.2373
 1910SOL    MW4 7640   4.247   2.319   3.086 -0.1493 -0.1165 -0.2765
 1911SOL     OW 7641   4.037   2.438   2.961  0.6014 -0.0628  0.1403
 1911SOL    HW2 7642   4.035   2.521   3.009  0.7432  0.3000 -0.4850
 1911SOL    HW3 7643   3.973   2.383   3.007 -0.3302  0.7762 -0.1257
 1911SOL    MW4 7644   4.028   2.441   2.974  0.4972  0.0957  0.0227
 1912SOL     OW 7645   4.055   2.678   3.148  0.1396  0.2647  0.3412
 1912SOL    HW2 7646   4.049   2.676   3.243  0.9015  0.4726  0.3969
 1912SOL    HW3 7647   3.973   2.718   3.119 -0.4035 -0.4688  0.8731
 1912SOL    MW4 7648   4.043   2.683   3.157  0.1685  0.1954  0.4188
 1913SOL     OW 7649   4.274   2.849   3.013  0.2068 -0.3904  0.0754
 1913SOL    HW2 7650   4.217   2.794   3.065 -0.9137  0.1555 -0.5403
 1913SOL    HW3 7651   4.362   2.816   3.029 -0.5255 -3.0683 -1.1396
 1913SOL    MW4 7652   4.278   2.838   3.022 -0.0377 -0.6717 -0.1661
 1914SOL     OW 7653   4.228   3.101   3.141 -0.2582  0.2608 -0.4753
 1914SOL    HW2 7654   4.156   3.148   3.100 -0.3500 -0.7958 -1.5637
 1914SOL    HW3 7655   4.244   3.026   3.083 -0.7604 -1.5891  1.7030
 1914SOL    MW4 7656   4.221   3.097   3.128 -0.3365 -0.1227 -0.3315
 1915SOL     OW 7657   4.007   3.215   3.018 -0.1167  0.2419  0.0150
 1915SOL    HW2 7658   4.020   3.301   3.058  1.6657 -1.0148  2.2696
 1915SOL    HW3 7659   4.036   3.227   2.927 -1.7850  2.5068 -0.2660
 1915SOL    MW4 7660   4.013   3.228   3.011 -0.1017  0.3749  0.2754
 1916SOL     OW 7661   4.069   3.515   3.127  0.1432  0.2384  0.8917
 1916SOL    HW2 7662   4.053   3.485   3.216 -0.0327 -0.9847  0.4601
 1916SOL    HW3 7663   3.984   3.546   3.096 -0.3977 -1.8629  0.2238
 1916SOL    MW4 7664   4.055   3.515   3.134  0.0487 -0.2002  0.7466
 1917SOL     OW 7665   4.286   3.635   3.003  0.2600  0.2009 -0.2352
 1917SOL    HW2 7666   4.295   3.716   3.053 -0.1361  0.9912 -1.4112
 1917SOL    HW3 7667   4.209   3.592   3.040  0.9233 -0.0321  0.9130
 1917SOL    MW4 7668   4.277   3.640   3.014  0.2953  0.2744 -0.2388
 1918SOL     OW 7669   4.286   3.861   3.147 -0.0872  0.0186 -0.1286
 1918SOL    HW2 7670   4.209   3.910   3.120  0.3204  0.4180 -0.5851
 1918SOL    HW3 7671   4.359   3.904   3.101  0.0983 -1.9773 -1.7937
 1918SOL    MW4 7672   4.286   3.873   3.137 -0.0090 -0.1920 -0.4085
 1919SOL     OW 7673   4.075   3.995   3.017  0.1492 -0.0725  0.7139
 1919SOL    HW2 7674   4.080   4.087   3.042  0.1181  0.0073  0.4290
 1919SOL    HW3 7675   3.989   3.967   3.047  0.5558 -0.2847  1.7188
 1919SOL    MW4 7676   4.064   4.003   3.024  0.1987 -0.0900  0.8089
 1920SOL     OW 7677   4.030   4.244   3.136 -0.2563  0.0846  0.1146
 1920SOL    HW2 7678   4.051   4.217   3.225  2.1332 -1.3882 -0.8321
 1920SOL    HW3 7679   4.110   4.286   3.104  0.2051 -2.5321 -2.4627
 1920SOL    MW4 7680   4.044   4.246   3.144  0.1198 -0.4549 -0.3504
 1921SOL     OW 7681   4.277   4.361   3.042  0.4082 -0.1819 -0.0868
 1921SOL    HW2 7682   4.368   4.339   3.059  0.4844  0.7021  0.7119
 1921SOL    HW3 7683   4.278   4.397   2.953  1.1049  1.2030  0.4553
 1921SOL    MW4 7684   4.289   4.363   3.032  0.5101  0.1175  0.0901
 1922SOL     OW 7685   0.207   4.604   3.380  0.2211 -0.0060  0.5275
 1922SOL    HW2 7686   0.281   4.656   3.412  0.1697 -0.1495  0.8734
 1922SOL    HW3 7687   0.206   4.527   3.436  0.4366 -0.4933 -0.1329
 1922SOL    MW4 7688   0.217   4.601   3.391  0.2427 -0.0893  0.4860
 1923SOL     OW 7689   0.045   0.088   3.558 -0.3237  0.0221 -0.3297
 1923SOL    HW2 7690   0.037   0.158   3.493  0.6279  0.2561 -0.1953
 1923SOL    HW3 7691   0.099   0.022   3.515  0.9749  0.5226  0.5017
 1923SOL    MW4 7692   0.051   0.089   3.544 -0.0268  0.1190 -0.2023
 1924SOL     OW 7693   4.481   0.301   3.394  0.1843  0.7636 -0.1132
 1924SOL    HW2 7694   4.404   0.352   3.418  0.0116  0.8265 -0.7773
 1924SOL    HW3 7695   4.555   0.360   3.409  0.1033  0.7206  0.4764
 1924SOL    MW4 7696   4.481   0.315   3.399  0.1508  0.7662 -0.1230
 1925SOL     OW 7697   0.206   0.471   3.477 -0.1213  0.2569 -0.3266
 1925SOL    HW2 7698   0.300   0.474   3.457  0.3781 -0.2906  1.8421
 1925SOL    HW3 7699   0.179   0.563   3.475  0.6645  0.5000 -0.0018
 1925SOL    MW4 7700   0.215   0.483   3.474  0.0483  0.2167  0.0024
 1926SOL     OW 7701   0.172   0.738   3.441  0.1053  0.0205 -0.2096
 1926SOL    HW2 7702   0.246   0.775   3.489  0.2996 -1.2899  0.5359
 1926SOL    HW3 7703   0.095   0.780   3.481  0.3684  0.3196 -0.0147
 1926SOL    MW4 7704   0.171   0.748   3.453  0.1656 -0.1129 -0.0855
 1927SOL     OW 7705   4.442   0.875   3.535 -0.3821  0.2150  0.1482
 1927SOL    HW2 7706   4.466   0.868   3.627  0.7829 -0.6633 -0.2071
 1927SOL    HW3 7707   4.465   0.964   3.510  0.8599 -0.0561  0.2866
 1927SOL    MW4 7708   4.448   0.886   3.544 -0.0645  0.0634  0.1196
 1928SOL     OW 7709   0.023   1.123   3.416 -0.0368 -0.5329 -0.1593
 1928SOL    HW2 7710   0.103   1.169   3.443 -0.8841  1.0609 -0.3123
 1928SOL    HW3 7711   0.026   1.124   3.320 -1.7407  2.3236 -0.2539
 1928SOL    MW4 7712   0.034   1.130   3.407 -0.3734  0.0542 -0.1920
 1929SOL     OW 7713   0.250   1.282   3.474  0.1388  0.6877 -0.5348
 1929SOL    HW2 7714   0.318   1.232   3.429 -1.2782  0.7148 -2.8085
 1929SOL    HW3 7715   0.250   1.367   3.430 -0.2894  1.2506  0.5280
 1929SOL    MW4 7716   0.259   1.286   3.462 -0.1046  0.7656 -0.6946
 1930SOL     OW 7717   0.271   1.571   3.399 -0.3225  0.3070  0.0917
 1930SOL    HW2 7718   0.348   1.618   3.432 -0.1725 -0.6939  1.1626
 1930SOL    HW3 7719   0.270   1.591   3.305  1.2191  0.3489  0.0757
 1930SOL    MW4 7720   0.281   1.580   3.391 -0.0993  0.1805  0.2308
 1931SOL     OW 7721   0.034   1.695   3.494  0.1313  0.4925 -0.9665
 1931SOL    HW2 7722  -0.027   1.638   3.447  1.3957 -0.1642 -1.8332
 1931SOL    HW3 7723   0.121   1.659   3.474  0.8428  1.7857 -0.2522
 1931SOL    MW4 7724   0.038   1.683   3.485  0.3920  0.5765 -0.9866
 1932SOL     OW 7725   0.056   1.971   3.388  0.1126  0.3054 -0.4162
 1932SOL    HW2 7726   0.076   1.887   3.429  3.3743  0.7911 -0.8845
 1932SOL    HW3 7727   0.036   1.949   3.297  1.1988  0.0458 -0.5964
 1932SOL    MW4 7728   0.056   1.957   3.381  0.6863  0.3352 -0.5018
 1933SOL     OW 7729   0.293   2.119   3.464 -0.2575  0.0196  0.3969
 1933SOL    HW2 7730   0.285   2.122   3.560 -1.3679  0.0816  0.3046
 1933SOL    HW3 7731   0.215   2.071   3.435 -0.3109  0.6675 -0.5326
 1933SOL    MW4 7732   0.282   2.113   3.473 -0.4110  0.1133  0.2621
 1934SOL     OW 7733   0.237   2.366   3.355  0.1799 -0.2973  0.1894
 1934SOL    HW2 7734   0.158   2.390   3.403  1.1184  0.6216  1.3398
 1934SOL    HW3 7735   0.261   2.279   3.388 -0.6315 -0.7990 -0.5413
 1934SOL    MW4 7736   0.230   2.358   3.366  0.1967 -0.2422  0.2448
 1935SOL     OW 7737   4.487   2.414   3.473  0.0270  0.1134 -0.4022
 1935SOL    HW2 7738   4.506   2.420   3.567 -2.0698 -2.3338  0.2584
 1935SOL    HW3 7739   4.399   2.374   3.469 -0.5557  1.5627 -3.3850
 1935SOL    MW4 7740   4.478   2.409   3.485 -0.3265 -0.0183 -0.7086
 1936SOL     OW 7741   4.465   2.689   3.346  0.1056  0.0472  0.1600
 1936SOL    HW2 7742   4.545   2.727   3.384  0.3320  0.0446 -0.3070
 1936SOL    HW3 7743   4.469   2.596   3.370  0.5522 -0.0769 -0.3728
 1936SOL    MW4 7744   4.476   2.682   3.354  0.1944  0.0305  0.0280
 1937SOL     OW 7745   0.204   2.812   3.504  0.1352  0.1670 -0.2576
 1937SOL    HW2 7746   0.281   2.768   3.468  0.3283 -0.0853  0.4614
 1937SOL    HW3 7747   0.215   2.904   3.478  0.3759  0.0286 -0.6582
 1937SOL    MW4 7748   0.215   2.818   3.496  0.1924  0.1154 -0.2156
 1938SOL     OW 7749   0.251   3.080   3.435 -0.0735  0.0072  0.1331
 1938SOL    HW2 7750   0.169   3.117   3.467  0.6240  0.5371  1.3428
 1938SOL    HW3 7751   0.249   3.095   3.341 -0.3895  1.9461  0.4337
 1938SOL    MW4 7752   0.240   3.087   3.427 -0.0232  0.3329  0.3324
 1939SOL     OW 7753   0.035   3.213   3.511 -0.4133 -0.6967 -0.2114
 1939SOL    HW2 7754  -0.039   3.162   3.478  0.0347 -0.3075 -1.8849
 1939SOL    HW3 7755   0.024   3.299   3.469  1.3716 -0.8637 -1.0428
 1939SOL    MW4 7756   0.023   3.217   3.501 -0.1187 -0.6674 -0.5419
 1940SOL     OW 7757   4.475   3.493   3.386  0.4490 -0.9264 -0.2020
 1940SOL    HW2 7758   4.381   3.504   3.399  0.4952 -1.1411  0.3547
 1940SOL    HW3 7759   4.489   3.505   3.292  0.0736  0.5381 -0.0791
 1940SOL    MW4 7760   4.465   3.496   3.375  0.4056 -0.7615 -0.1124
 1941SOL     OW 7761   0.233   3.570   3.511  0.0206  0.1778 -0.1390
 1941SOL    HW2 7762   0.211   3.558   3.603  0.8713 -0.9490 -0.0725
 1941SOL    HW3 7763   0.151   3.552   3.464 -0.4257  0.8081  0.3914
 1941SOL    MW4 7764   0.219   3.566   3.517  0.0740  0.1123 -0.0602
 1942SOL     OW 7765   0.211   3.827   3.402  0.0711 -0.2458 -0.2244
 1942SOL    HW2 7766   0.129   3.863   3.435 -0.1495  0.0302 -1.0782
 1942SOL    HW3 7767   0.231   3.754   3.461 -0.3859  0.1708  0.4468
 1942SOL    MW4 7768   0.203   3.822   3.414 -0.0183 -0.1544 -0.2485
 1943SOL     OW 7769   4.464   3.956   3.516 -0.2026  0.3836 -0.3813
 1943SOL    HW2 7770   4.434   3.968   3.606 -0.9687  1.3107 -0.7536
 1943SOL    HW3 7771   4.476   4.044   3.483  0.5250  0.0391 -1.0448
 1943SOL    MW4 7772   4.461   3.969   3.523 -0.2077  0.4605 -0.5180
 1944SOL     OW 7773   0.012   4.219   3.404  0.5772 -0.1220  0.0824
 1944SOL    HW2 7774  -0.062   4.273   3.433 -0.4598 -0.9575 -0.9543
 1944SOL    HW3 7775   0.089   4.270   3.429 -0.3588  1.3548  0.0823
 1944SOL    MW4 7776   0.012   4.233   3.411  0.3169 -0.0374 -0.0544
 1945SOL     OW 7777   0.220   4.362   3.525 -0.4688  0.1163  0.6130
 1945SOL    HW2 7778   0.232   4.348   3.619  0.4623 -1.7095  0.2490
 1945SOL    HW3 7779   0.290   4.311   3.484 -0.9702  0.7582 -1.0810
 1945SOL    MW4 7780   0.231   4.353   3.532 -0.4121 -0.0399  0.3415
 1946SOL     OW 7781   0.671   4.628   3.451  0.1711 -0.6566  0.4952
 1946SOL    HW2 7782   0.742   4.687   3.477 -0.1601 -0.2240  0.3959
 1946SOL    HW3 7783   0.679   4.620   3.356  0.2873 -0.8678  0.5202
 1946SOL    MW4 7784   0.682   4.635   3.442  0.1427 -0.6274  0.4854
 1947SOL     OW 7785   0.433   0.074   3.481  0.0909 -0.2855  0.3262
 1947SOL    HW2 7786   0.423   0.082   3.576  1.6642 -0.3308  0.4977
 1947SOL    HW3 7787   0.513   0.023   3.469 -0.7866 -1.3867 -1.0093
 1947SOL    MW4 7788   0.442   0.068   3.492  0.1827 -0.4368  0.1726
 1948SOL     OW 7789   0.456   0.372   3.405  0.0586  0.3297 -0.0205
 1948SOL    HW2 7790   0.531   0.398   3.459  1.8466 -0.3800 -2.0812
 1948SOL    HW3 7791   0.447   0.278   3.421  0.1942  0.2401 -0.4629
 1948SOL    MW4 7792   0.465   0.363   3.414  0.3124  0.2242 -0.3508
 1949SOL     OW 7793   0.680   0.464   3.547  0.2220  0.5522  0.3932
 1949SOL    HW2 7794   0.694   0.455   3.641 -0.0745 -2.1951  0.2004
 1949SOL    HW3 7795   0.760   0.429   3.508  0.5144  2.0632 -0.3893
 1949SOL    MW4 7796   0.693   0.458   3.554  0.2214  0.3891  0.2645
 1950SOL     OW 7797   0.669   0.732   3.461 -0.7079  0.2633 -0.3727
 1950SOL    HW2 7798   0.578   0.762   3.464 -0.9828 -0.5941  0.1656
 1950SOL    HW3 7799   0.663   0.638   3.476  0.2313  0.1220 -0.8648
 1950SOL    MW4 7800   0.656   0.723   3.463 -0.6202  0.1315 -0.3666
 1951SOL     OW 7801   0.420   0.839   3.535  0.0062  0.0153  0.0049
 1951SOL    HW2 7802   0.460   0.820   3.620  0.4038 -0.3883 -0.2759
 1951SOL    HW3 7803   0.451   0.927   3.514  0.6155 -0.2300 -0.1344
 1951SOL    MW4 7804   0.429   0.848   3.544  0.1390 -0.0703 -0.0505
 1952SOL     OW 7805   0.476   1.099   3.421 -0.0191  0.4309 -0.2529
 1952SOL    HW2 7806   0.546   1.155   3.453 -0.0699  0.6341 -0.4862
 1952SOL    HW3 7807   0.474   1.116   3.326 -1.5705  1.8090 -0.0029
 1952SOL    MW4 7808   0.485   1.109   3.413 -0.2305  0.6395 -0.2507
 1953SOL     OW 7809   0.690   1.265   3.505 -0.3769  0.8962  0.0708
 1953SOL    HW2 7810   0.770   1.225   3.473 -0.3366  0.3194  0.8878
 1953SOL    HW3 7811   0.682   1.346   3.455  0.6217  0.8700 -0.1315
 1953SOL    MW4 7812   0.699   1.271   3.494 -0.2398  0.8166  0.1519
 1954SOL     OW 7813   0.692   1.527   3.398  0.2726  0.1474  0.2149
 1954SOL    HW2 7814   0.780   1.553   3.422 -0.0065  3.0315 -1.6834
 1954SOL    HW3 7815   0.635   1.591   3.439 -0.8357 -0.6312 -0.0613
 1954SOL    MW4 7816   0.696   1.539   3.406  0.0896  0.4252 -0.0720
 1955SOL     OW 7817   0.486   1.679   3.523 -0.1613 -0.3552 -0.0995
 1955SOL    HW2 7818   0.460   1.659   3.613  1.8552 -2.5098  0.0701
 1955SOL    HW3 7819   0.539   1.759   3.530  1.0360 -1.2137  0.8240
 1955SOL    MW4 7820   0.490   1.687   3.536  0.2627 -0.7528  0.0447
 1956SOL     OW 7821   0.536   2.051   3.365  0.1624  0.6194 -0.1918
 1956SOL    HW2 7822   0.449   2.079   3.394  0.2385 -0.2777  0.9545
 1956SOL    HW3 7823   0.520   2.002   3.284 -0.4704 -0.0320  0.3207
 1956SOL    MW4 7824   0.522   2.048   3.358  0.0890  0.4151  0.0271
 1957SOL     OW 7825   0.684   1.921   3.566 -0.3271 -0.2316 -0.0457
 1957SOL    HW2 7826   0.671   1.964   3.650  1.6239  0.2399  0.0444
 1957SOL    HW3 7827   0.627   1.967   3.506  0.3391  1.2531  0.4422
 1957SOL    MW4 7828   0.675   1.932   3.569  0.0182  0.0265  0.0306
 1958SOL     OW 7829   0.637   2.311   3.363  0.2018  0.2583  0.5485
 1958SOL    HW2 7830   0.725   2.323   3.398  0.8159 -0.9189 -0.5366
 1958SOL    HW3 7831   0.615   2.220   3.382 -0.1488  0.0969 -0.5427
 1958SOL    MW4 7832   0.645   2.301   3.370  0.2365  0.0817  0.2613
 1959SOL     OW 7833   0.465   2.466   3.500  0.1457  0.3448 -0.4244
 1959SOL    HW2 7834   0.527   2.405   3.462 -0.3444 -0.2316 -0.3073
 1959SOL    HW3 7835   0.381   2.443   3.461 -0.0582  0.8793 -0.3084
 1959SOL    MW4 7836   0.462   2.455   3.490  0.0541  0.3393 -0.3936
 1960SOL     OW 7837   0.434   2.711   3.366  0.0584 -0.6846 -0.2705
 1960SOL    HW2 7838   0.460   2.626   3.402  1.4390  0.0920  0.6245
 1960SOL    HW3 7839   0.456   2.705   3.273  0.4515 -1.2042 -0.1496
 1960SOL    MW4 7840   0.440   2.699   3.359  0.2924 -0.6507 -0.1365
 1961SOL     OW 7841   0.680   2.785   3.482  0.6483  0.7583 -0.5591
 1961SOL    HW2 7842   0.749   2.736   3.438  1.1073  1.6736 -0.8686
 1961SOL    HW3 7843   0.601   2.766   3.431  0.6023 -0.5256 -0.0281
 1961SOL    MW4 7844   0.678   2.776   3.469  0.7028  0.7097 -0.5299
 1962SOL     OW 7845   0.721   3.050   3.391 -0.1272  0.3265 -0.5934
 1962SOL    HW2 7846   0.631   3.078   3.410 -0.2369  0.6476 -1.5296
 1962SOL    HW3 7847   0.722   2.958   3.414 -1.1226 -0.0392 -1.9070
 1962SOL    MW4 7848   0.709   3.042   3.396 -0.2730  0.3206 -0.8902
 1963SOL     OW 7849   0.501   3.178   3.490 -0.2599 -0.6502 -0.0797
 1963SOL    HW2 7850   0.498   3.171   3.586  0.7610 -0.9853 -0.0564
 1963SOL    HW3 7851   0.419   3.140   3.460 -0.7674 -0.1689  0.6823
 1963SOL    MW4 7852   0.490   3.172   3.499 -0.1922 -0.6309  0.0239
 1964SOL     OW 7853   0.451   3.450   3.415  0.4102  0.4023  0.6135
 1964SOL    HW2 7854   0.439   3.357   3.435 -2.2319  0.3806 -0.8608
 1964SOL    HW3 7855   0.370   3.491   3.444  1.1930  2.1121  0.4057
 1964SOL    MW4 7856   0.439   3.443   3.422  0.1649  0.6250  0.3916
 1965SOL     OW 7857   0.686   3.603   3.464 -0.3761  0.1730  0.0877
 1965SOL    HW2 7858   0.770   3.560   3.453 -0.7710 -0.0867 -2.2470
 1965SOL    HW3 7859   0.622   3.534   3.446 -1.0659  0.8094  0.0828
 1965SOL    MW4 7860   0.688   3.588   3.460 -0.5192  0.2227 -0.2210
 1966SOL     OW 7861   0.688   3.864   3.388  0.3198 -0.2609 -0.3505
 1966SOL    HW2 7862   0.601   3.903   3.391  1.3722  2.1165  0.4373
 1966SOL    HW3 7863   0.675   3.775   3.422 -1.4241  0.8385  2.0097
 1966SOL    MW4 7864   0.675   3.857   3.393  0.2286  0.1978  0.0648
 1967SOL     OW 7865   0.441   3.964   3.440 -0.1961 -0.4402  0.0018
 1967SOL    HW2 7866   0.425   4.057   3.424 -1.3770 -0.6606 -0.1553
 1967SOL    HW3 7867   0.357   3.922   3.422  0.3578 -1.5522 -0.0243
 1967SOL    MW4 7868   0.428   3.970   3.436 -0.2788 -0.6160 -0.0224
 1968SOL     OW 7869   0.434   4.237   3.400 -0.0558 -0.5538 -0.2181
 1968SOL    HW2 7870   0.513   4.278   3.436 -0.2982 -0.9911  0.8502
 1968SOL    HW3 7871   0.444   4.244   3.305  0.3525  1.1167 -0.0767
 1968SOL    MW4 7872   0.445   4.243   3.393 -0.0339 -0.3911 -0.0585
 1969SOL     OW 7873   0.658   4.344   3.514  0.4969  0.0198 -0.1791
 1969SOL    HW2 7874   0.748   4.321   3.492  0.2333 -1.1103 -0.1319
 1969SOL    HW3 7875   0.651   4.437   3.495  1.4728 -0.0436 -0.8585
 1969SOL    MW4 7876   0.669   4.353   3.509  0.5909 -0.1377 -0.2625
 1970SOL     OW 7877   1.116   4.645   3.432 -0.4044  0.1085 -0.5370
 1970SOL    HW2 7878   1.201   4.678   3.461 -0.7187  0.6603 -0.2424
 1970SOL    HW3 7879   1.112   4.666   3.339 -0.8647  1.4650 -0.2155
 1970SOL    MW4 7880   1.126   4.652   3.423 -0.5066  0.3603 -0.4557
 1971SOL     OW 7881   0.895   0.116   3.531 -0.4747 -0.1270 -0.5295
 1971SOL    HW2 7882   0.896   0.104   3.626 -0.1614  1.6715 -0.2932
 1971SOL    HW3 7883   0.973   0.069   3.501  0.2939  0.5942  0.2788
 1971SOL    MW4 7884   0.906   0.108   3.540 -0.3320  0.2054 -0.3916
 1972SOL     OW 7885   0.897   0.349   3.399 -0.9839  0.9575 -0.3734
 1972SOL    HW2 7886   0.976   0.396   3.426 -0.4343  0.5953 -1.3085
 1972SOL    HW3 7887   0.900   0.267   3.447  0.0446  0.2659 -1.5920
 1972SOL    MW4 7888   0.908   0.345   3.409 -0.7757  0.8185 -0.6576
 1973SOL     OW 7889   1.105   0.517   3.483 -0.3333 -0.0356 -0.0231
 1973SOL    HW2 7890   1.091   0.529   3.577 -1.2029  0.7417 -0.2573
 1973SOL    HW3 7891   1.125   0.604   3.450 -0.5375 -0.2248 -0.6513
 1973SOL    MW4 7892   1.106   0.530   3.491 -0.4750  0.0420 -0.1369
 1974SOL     OW 7893   1.146   0.759   3.372 -0.4962 -0.2779  0.0652
 1974SOL    HW2 7894   1.203   0.821   3.416 -0.4693  1.2858 -2.1052
 1974SOL    HW3 7895   1.058   0.783   3.401 -0.3440 -0.4764  0.7084
 1974SOL    MW4 7896   1.142   0.770   3.382 -0.4726 -0.0977 -0.1363
 1975SOL     OW 7897   0.908   0.853   3.490  0.0107  0.4646 -0.5042
 1975SOL    HW2 7898   0.899   0.945   3.464 -1.6227  0.4371 -0.0948
 1975SOL    HW3 7899   0.819   0.818   3.487  0.4282 -0.7613  0.6536
 1975SOL    MW4 7900   0.895   0.860   3.486 -0.1498  0.2992 -0.2975
 1976SOL     OW 7901   0.940   1.139   3.421  0.7522 -0.6675  0.9922
 1976SOL    HW2 7902   1.030   1.162   3.444  1.1720  0.3987 -1.5318
 1976SOL    HW3 7903   0.937   1.149   3.326 -2.3205  0.3345  1.1545
 1976SOL    MW4 7904   0.952   1.143   3.411  0.4022 -0.3946  0.6806
 1977SOL     OW 7905   1.194   1.240   3.552  0.1638  0.1746 -0.4464
 1977SOL    HW2 7906   1.176   1.233   3.646  0.8096  0.6688 -0.2774
 1977SOL    HW3 7907   1.156   1.324   3.526 -0.5420 -0.2398 -0.7570
 1977SOL    MW4 7908   1.187   1.251   3.561  0.1558  0.1851 -0.4651
 1978SOL     OW 7909   1.134   1.501   3.450 -0.4638 -0.1187 -0.0244
 1978SOL    HW2 7910   1.198   1.556   3.495 -0.8454  0.4122 -0.1273
 1978SOL    HW3 7911   1.162   1.500   3.359  1.8226 -3.3178  0.6276
 1978SOL    MW4 7912   1.146   1.508   3.444 -0.2124 -0.4707  0.0481
 1979SOL     OW 7913   0.921   1.636   3.511 -0.3702  0.6393  0.1345
 1979SOL    HW2 7914   0.938   1.723   3.473  0.8207  0.9551  1.3516
 1979SOL    HW3 7915   0.998   1.585   3.488  0.5585  0.9572  2.4514
 1979SOL    MW4 7916   0.933   1.641   3.503 -0.0905  0.7229  0.6008
 1980SOL     OW 7917   0.923   1.909   3.415  0.1138 -0.3821  0.2126
 1980SOL    HW2 7918   0.999   1.956   3.451  0.7107 -1.1470 -0.0299
 1980SOL    HW3 7919   0.855   1.918   3.481 -0.2482  2.0128 -0.4296
 1980SOL    MW4 7920   0.924   1.916   3.428  0.1448 -0.1670  0.0959
 1981SOL     OW 7921   1.146   2.021   3.539 -0.0419  0.0067  0.3854
 1981SOL    HW2 7922   1.229   1.980   3.518 -1.0739 -1.6918 -0.4730
 1981SOL    HW3 7923   1.144   2.100   3.484 -0.7145 -2.0338 -2.5933
 1981SOL    MW4 7924   1.157   2.026   3.529 -0.2668 -0.4866 -0.1208
 1982SOL     OW 7925   1.152   2.261   3.366 -0.0034  0.0946 -0.1514
 1982SOL    HW2 7926   1.208   2.328   3.407  0.9534 -0.4533 -0.5327
 1982SOL    HW3 7927   1.155   2.282   3.273 -1.0634  0.5188 -0.0949
 1982SOL    MW4 7928   1.160   2.273   3.359 -0.0170  0.0783 -0.1942
 1983SOL     OW 7929   0.881   2.370   3.447 -0.5594 -0.1929 -0.0833
 1983SOL    HW2 7930   0.904   2.381   3.540 -1.2995  0.1428  0.0647
 1983SOL    HW3 7931   0.963   2.346   3.405 -0.1992 -0.2771  0.6513
 1983SOL    MW4 7932   0.895   2.368   3.454 -0.6095 -0.1597  0.0331
 1984SOL     OW 7933   0.894   2.651   3.383  0.2593 -0.1602 -0.4646
 1984SOL    HW2 7934   0.978   2.683   3.416  0.8827  0.6225 -2.7257
 1984SOL    HW3 7935   0.888   2.561   3.416  1.1192  0.3907  1.2389
 1984SOL    MW4 7936   0.904   2.643   3.392  0.4550  0.0157 -0.5382
 1985SOL     OW 7937   1.112   2.771   3.510  0.4799 -0.3403  0.1368
 1985SOL    HW2 7938   1.120   2.774   3.606  0.6236 -1.0692  0.1516
 1985SOL    HW3 7939   1.197   2.738   3.480  0.3565 -0.3282 -0.2257
 1985SOL    MW4 7940   1.124   2.767   3.519  0.4826 -0.4349  0.0909
 1986SOL     OW 7941   1.136   3.051   3.435 -0.1029  0.1913  0.0348
 1986SOL    HW2 7942   1.128   2.959   3.460  3.8190 -0.2757 -0.1690
 1986SOL    HW3 7943   1.159   3.049   3.342 -0.3480  1.3746 -0.0572
 1986SOL    MW4 7944   1.138   3.039   3.426  0.3822  0.2858 -0.0042
 1987SOL     OW 7945   0.913   3.213   3.499 -0.5569 -0.0759 -0.3904
 1987SOL    HW2 7946   0.997   3.177   3.472 -0.8158 -0.2830 -0.9182
 1987SOL    HW3 7947   0.848   3.157   3.457 -0.9586  0.1829 -0.1165
 1987SOL    MW4 7948   0.916   3.201   3.490 -0.6441 -0.0691 -0.4239
 1988SOL     OW 7949   0.910   3.466   3.393  0.2725  0.2080  0.1139
 1988SOL    HW2 7950   0.891   3.375   3.417  0.9156  0.1839  0.5478
 1988SOL    HW3 7951   0.932   3.462   3.300 -0.3131  0.0162 -0.0220
 1988SOL    MW4 7952   0.910   3.453   3.384  0.2801  0.1795  0.1532
 1989SOL     OW 7953   1.116   3.598   3.520  0.1433 -0.0613  0.0652
 1989SOL    HW2 7954   1.115   3.604   3.616 -0.5982  1.0985 -0.0029
 1989SOL    HW3 7955   1.037   3.547   3.499 -0.8155  1.4213 -0.0161
 1989SOL    MW4 7956   1.105   3.592   3.530 -0.0810  0.2873  0.0455
 1990SOL     OW 7957   1.108   3.857   3.441  0.4314  0.2607 -0.1237
 1990SOL    HW2 7958   1.184   3.900   3.479 -0.0410  1.4810 -0.5366
 1990SOL    HW3 7959   1.110   3.769   3.477  1.8435  0.3872  0.1395
 1990SOL    MW4 7960   1.118   3.851   3.451  0.5554  0.4384 -0.1434
 1991SOL     OW 7961   0.882   3.970   3.555  0.1909 -0.1881 -0.1836
 1991SOL    HW2 7962   0.961   3.933   3.514 -0.2222 -0.5077 -0.6902
 1991SOL    HW3 7963   0.810   3.942   3.498 -0.1046  1.6161 -0.7270
 1991SOL    MW4 7964   0.883   3.961   3.542  0.0974  0.0078 -0.3222
 1992SOL     OW 7965   0.925   4.235   3.484  0.0828 -0.3816 -0.0428
 1992SOL    HW2 7966   0.901   4.146   3.508  0.0766 -0.6451 -1.0007
 1992SOL    HW3 7967   0.926   4.235   3.388  0.9895  0.4029 -0.0453
 1992SOL    MW4 7968   0.922   4.223   3.475  0.2016 -0.3128 -0.1695
 1993SOL     OW 7969   1.159   4.403   3.524  0.2936  0.0555 -0.1959
 1993SOL    HW2 7970   1.089   4.338   3.516  0.8481 -0.4409 -1.2403
 1993SOL    HW3 7971   1.127   4.479   3.477  0.6317 -0.3340 -1.0703
 1993SOL    MW4 7972   1.146   4.404   3.517  0.4114 -0.0614 -0.4491
 1994SOL     OW 7973   1.609   4.664   3.433  0.2247  0.4579 -0.1310
 1994SOL    HW2 7974   1.610   4.580   3.479  1.6109 -0.4129 -1.7354
 1994SOL    HW3 7975   1.518   4.693   3.439 -0.3753 -1.3867  0.0164
 1994SOL    MW4 7976   1.597   4.657   3.440  0.3284  0.0997 -0.3232
 1995SOL     OW 7977   1.342   0.110   3.495 -0.6321  0.1414  0.4608
 1995SOL    HW2 7978   1.350   0.114   3.590  0.6319 -1.6029  0.4605
 1995SOL    HW3 7979   1.342   0.202   3.467  0.5072  0.6433  2.0300
 1995SOL    MW4 7980   1.343   0.123   3.504 -0.3151 -0.0225  0.6678
 1996SOL     OW 7981   1.347   0.369   3.410 -0.4226  0.3034  0.4158
 1996SOL    HW2 7982   1.418   0.406   3.463 -0.7995  1.9303 -0.1867
 1996SOL    HW3 7983   1.268   0.414   3.441 -0.6455  1.2916 -1.5243
 1996SOL    MW4 7984   1.346   0.380   3.421 -0.5017  0.6484  0.0804
 1997SOL     OW 7985   1.563   0.502   3.537  0.2495 -0.1723 -0.0313
 1997SOL    HW2 7986   1.573   0.472   3.627  0.1828 -2.2402 -0.6825
 1997SOL    HW3 7987   1.638   0.466   3.491 -0.5749 -0.5122 -1.1374
 1997SOL    MW4 7988   1.574   0.493   3.543  0.1319 -0.4900 -0.2632
 1998SOL     OW 7989   1.537   0.743   3.412  0.0958 -0.2436  0.5260
 1998SOL    HW2 7990   1.466   0.800   3.440  0.4103 -0.0742  1.0024
 1998SOL    HW3 7991   1.517   0.658   3.451  0.1281 -0.2053  0.6282
 1998SOL    MW4 7992   1.525   0.739   3.421  0.1415 -0.2162  0.6023
 1999SOL     OW 7993   1.329   0.919   3.478  0.2317  0.2365 -0.1285
 1999SOL    HW2 7994   1.332   0.951   3.568  0.5502  0.1178 -0.0959
 1999SOL    HW3 7995   1.354   0.995   3.425 -3.0647  1.2069 -0.3487
 1999SOL    MW4 7996   1.333   0.933   3.483 -0.1612  0.3489 -0.1533
 2000SOL     OW 7997   1.396   1.163   3.364  0.4042  0.0508  0.2495
 2000SOL    HW2 7998   1.477   1.208   3.387 -0.2333  1.8235 -0.8398
 2000SOL    HW3 7999   1.331   1.198   3.427 -0.2496  1.2266 -1.0497
 2000SOL    MW4 8000   1.398   1.174   3.376  0.2338  0.4398 -0.0656
 2001SOL     OW 8001   1.615   1.298   3.480  0.0107 -0.0449 -0.1656
 2001SOL    HW2 8002   1.615   1.278   3.574  1.5963  0.9147  0.0554
 2001SOL    HW3 8003   1.681   1.238   3.443 -0.3752 -0.1936 -0.6184
 2001SOL    MW4 8004   1.624   1.287   3.488  0.1690  0.0621 -0.1962
 2002SOL     OW 8005   1.555   1.550   3.403 -0.1940  0.0912  0.5124
 2002SOL    HW2 8006   1.567   1.460   3.431  0.8144  0.3972  1.0816
 2002SOL    HW3 8007   1.588   1.552   3.313  0.2388 -0.0081  0.6658
 2002SOL    MW4 8008   1.561   1.538   3.395 -0.0039  0.1184  0.6077
 2003SOL     OW 8009   1.337   1.641   3.559 -0.2437  0.0583 -0.3022
 2003SOL    HW2 8010   1.342   1.612   3.650  1.9655  0.8563 -0.1279
 2003SOL    HW3 8011   1.418   1.608   3.519  2.0291  5.1061 -0.2756
 2003SOL    MW4 8012   1.348   1.633   3.566  0.3476  0.8296 -0.2757
 2004SOL     OW 8013   1.380   1.908   3.442 -0.0851 -0.0357  0.2412
 2004SOL    HW2 8014   1.455   1.965   3.460 -0.2022 -0.1601  1.1931
 2004SOL    HW3 8015   1.400   1.827   3.491 -0.9221  0.0002  0.6558
 2004SOL    MW4 8016   1.393   1.905   3.451 -0.2110 -0.0474  0.4215
 2005SOL     OW 8017   1.597   2.069   3.512 -0.7545  0.5007  0.4410
 2005SOL    HW2 8018   1.682   2.031   3.491 -0.4467 -0.0244  2.5603
 2005SOL    HW3 8019   1.604   2.160   3.483 -0.0498  0.0438 -0.8565
 2005SOL    MW4 8020   1.609   2.076   3.506 -0.6209  0.3712  0.5495
 2006SOL     OW 8021   1.586   2.318   3.382  0.0730 -0.4065 -0.3882
 2006SOL    HW2 8022   1.495   2.346   3.396  0.3183 -0.4603  1.4278
 2006SOL    HW3 8023   1.597   2.321   3.287 -1.1450  1.7458 -0.5055
 2006SOL    MW4 8024   1.575   2.322   3.371 -0.0553 -0.1296 -0.1641
 2007SOL     OW 8025   1.357   2.434   3.474 -0.4036 -0.4661 -0.3209
 2007SOL    HW2 8026   1.352   2.429   3.570 -1.3038  1.8517 -0.2107
 2007SOL    HW3 8027   1.351   2.528   3.455 -3.8671 -1.1079 -2.8321
 2007SOL    MW4 8028   1.355   2.446   3.484 -0.9793 -0.2450 -0.6376
 2008SOL     OW 8029   1.350   2.703   3.384  0.1892 -0.4019 -0.3545
 2008SOL    HW2 8030   1.429   2.748   3.414 -0.1828  0.8407 -1.2269
 2008SOL    HW3 8031   1.352   2.712   3.289 -0.3213 -1.5358 -0.4838
 2008SOL    MW4 8032   1.361   2.710   3.375  0.0728 -0.3875 -0.4867
 2009SOL     OW 8033   1.590   2.840   3.474  0.1699 -0.0113  0.5571
 2009SOL    HW2 8034   1.669   2.793   3.448 -0.4431 -0.8875  0.2419
 2009SOL    HW3 8035   1.599   2.926   3.433  0.7471 -0.2660  0.1378
 2009SOL    MW4 8036   1.602   2.845   3.465  0.1652 -0.1605  0.4602
 2010SOL     OW 8037   1.611   3.091   3.371  0.0913  0.1972 -0.4036
 2010SOL    HW2 8038   1.681   3.151   3.399 -0.1286 -0.0183  0.6148
 2010SOL    HW3 8039   1.530   3.133   3.402 -0.1225 -0.2477 -0.3651
 2010SOL    MW4 8040   1.610   3.105   3.379  0.0341  0.1101 -0.2642
 2011SOL     OW 8041   1.367   3.192   3.471 -0.7568 -0.2626 -0.5902
 2011SOL    HW2 8042   1.373   3.197   3.567  0.8434 -0.2021 -0.6768
 2011SOL    HW3 8043   1.289   3.138   3.455 -2.2544  1.4669  0.7002
 2011SOL    MW4 8044   1.358   3.185   3.482 -0.7433 -0.0264 -0.4314
 2012SOL     OW 8045   1.314   3.466   3.377 -0.3809  0.1616 -0.1517
 2012SOL    HW2 8046   1.316   3.376   3.409 -1.1183 -0.3387 -1.4711
 2012SOL    HW3 8047   1.241   3.507   3.423 -0.7173 -0.2238 -0.3395
 2012SOL    MW4 8048   1.305   3.460   3.387 -0.5226  0.0448 -0.3506
 2013SOL     OW 8049   1.563   3.560   3.511 -0.0875 -0.0971 -0.5513
 2013SOL    HW2 8050   1.551   3.564   3.606 -0.8108  0.4776 -0.6621
 2013SOL    HW3 8051   1.478   3.535   3.476  0.1288 -0.1367 -1.0597
 2013SOL    MW4 8052   1.550   3.557   3.519 -0.1544 -0.0265 -0.6330
 2014SOL     OW 8053   1.572   3.850   3.444 -0.0804  0.5433 -0.1309
 2014SOL    HW2 8054   1.576   3.758   3.470  0.2109  0.4698 -0.4261
 2014SOL    HW3 8055   1.566   3.848   3.348  0.6243  0.8405 -0.1850
 2014SOL    MW4 8056   1.572   3.838   3.435  0.0510  0.5728 -0.1770
 2015SOL     OW 8057   1.335   3.997   3.520  0.4796  0.5955 -0.1108
 2015SOL    HW2 8058   1.353   4.069   3.461  1.0928 -0.9518 -1.8547
 2015SOL    HW3 8059   1.409   3.937   3.509 -1.0048 -1.2692 -0.2347
 2015SOL    MW4 8060   1.347   3.998   3.511  0.3646  0.1453 -0.3572
 2016SOL     OW 8061   1.370   4.273   3.428 -0.0948  0.1592  0.5090
 2016SOL    HW2 8062   1.290   4.312   3.461  1.3338  2.7255  1.0958
 2016SOL    HW3 8063   1.358   4.269   3.333 -1.0832  0.1111  0.6343
 2016SOL    MW4 8064   1.358   4.277   3.420 -0.0367  0.4915  0.6030
 2017SOL     OW 8065   1.594   4.413   3.542 -0.1735  0.2176  0.2136
 2017SOL    HW2 8066   1.664   4.376   3.488 -0.1383  0.4654  0.0884
 2017SOL    HW3 8067   1.515   4.366   3.514 -0.1510  0.3220 -0.0320
 2017SOL    MW4 8068   1.593   4.402   3.531 -0.1659  0.2641  0.1646
 2018SOL     OW 8069   2.031   4.631   3.392 -0.1371  0.2496 -0.5831
 2018SOL    HW2 8070   2.103   4.676   3.435 -0.4340 -0.5466  0.7826
 2018SOL    HW3 8071   1.952   4.679   3.419 -0.3601 -0.4789  0.0900
 2018SOL    MW4 8072   2.030   4.643   3.401 -0.2057  0.0484 -0.3141
 2019SOL     OW 8073   1.826   0.150   3.470  0.5554  0.0164 -0.0195
 2019SOL    HW2 8074   1.827   0.167   3.564  1.8164 -2.9621  0.5731
 2019SOL    HW3 8075   1.740   0.112   3.453 -0.1223  1.6489 -0.3110
 2019SOL    MW4 8076   1.815   0.147   3.480  0.6324 -0.1612  0.0202
 2020SOL     OW 8077   1.809   0.414   3.384 -0.0330 -0.2081 -0.2149
 2020SOL    HW2 8078   1.801   0.321   3.407 -2.5079 -0.3176 -1.2858
 2020SOL    HW3 8079   1.797   0.416   3.289 -2.0710  1.3812  0.0429
 2020SOL    MW4 8080   1.806   0.402   3.374 -0.6284 -0.0129 -0.3221
 2021SOL     OW 8081   2.036   0.515   3.502  0.4786 -0.4169  0.2372
 2021SOL    HW2 8082   2.054   0.599   3.459  0.6929 -0.0604  1.0087
 2021SOL    HW3 8083   1.960   0.480   3.456  2.1339 -1.1713 -2.0011
 2021SOL    MW4 8084   2.029   0.522   3.490  0.7252 -0.4694  0.0437
 2022SOL     OW 8085   2.015   0.764   3.401  0.5066  0.5657 -0.0777
 2022SOL    HW2 8086   2.085   0.818   3.436  0.7522  0.0607  0.2108
 2022SOL    HW3 8087   2.043   0.744   3.311 -0.0510  1.7298 -0.5189
 2022SOL    MW4 8088   2.028   0.768   3.394  0.4654  0.6527 -0.0978
 2023SOL     OW 8089   1.775   0.830   3.518 -0.6438  0.3041  0.0899
 2023SOL    HW2 8090   1.858   0.803   3.479  0.0073  0.1388  1.5835
 2023SOL    HW3 8091   1.711   0.767   3.484  0.4328 -1.6800  1.6448
 2023SOL    MW4 8092   1.777   0.818   3.508 -0.4158  0.0205  0.4921
 2024SOL     OW 8093   1.787   1.099   3.371  0.0393  0.1397  0.1829
 2024SOL    HW2 8094   1.861   1.145   3.411 -0.6894 -0.1303  1.8768
 2024SOL    HW3 8095   1.794   1.010   3.404 -0.1060 -0.3051 -0.9667
 2024SOL    MW4 8096   1.798   1.093   3.380 -0.0760  0.0454  0.2547
 2025SOL     OW 8097   1.981   1.283   3.480 -0.1900  0.1073 -0.1950
 2025SOL    HW2 8098   2.007   1.297   3.571 -0.5000 -0.7669  0.0330
 2025SOL    HW3 8099   1.985   1.370   3.440 -0.0452  0.4927  0.6530
 2025SOL    MW4 8100   1.985   1.296   3.487 -0.2118  0.0428 -0.0530
 2026SOL     OW 8101   2.035   1.548   3.411 -0.1522 -0.2855 -0.2771
 2026SOL    HW2 8102   2.109   1.602   3.439  0.0335  0.1608 -1.5985
 2026SOL    HW3 8103   1.959   1.604   3.426 -0.0177  0.1067 -0.9932
 2026SOL    MW4 8104   2.035   1.563   3.417 -0.1099 -0.1749 -0.5459
 2027SOL     OW 8105   1.798   1.665   3.489 -0.2741 -0.1491  0.0686
 2027SOL    HW2 8106   1.800   1.760   3.478 -0.8943 -0.0274  0.9538
 2027SOL    HW3 8107   1.707   1.640   3.470  0.0434 -0.6577 -0.8402
 2027SOL    MW4 8108   1.786   1.674   3.485 -0.3141 -0.2001  0.0655
 2028SOL     OW 8109   1.826   1.942   3.444  0.1226  0.0345 -0.1256
 2028SOL    HW2 8110   1.905   1.988   3.472 -0.2118  1.6861 -1.7669
 2028SOL    HW3 8111   1.820   1.959   3.350 -0.7809 -2.2604 -0.5233
 2028SOL    MW4 8112   1.835   1.950   3.435 -0.0408 -0.0504 -0.3946
 2029SOL     OW 8113   2.055   2.060   3.552  0.1074 -0.4017  0.1240
 2029SOL    HW2 8114   2.132   2.024   3.507  0.8205  1.7301 -0.3977
 2029SOL    HW3 8115   2.049   2.150   3.522 -0.9094  0.3183  2.4043
 2029SOL    MW4 8116   2.064   2.067   3.542  0.0673 -0.0254  0.3560
 2030SOL     OW 8117   2.084   2.329   3.424 -0.4686  0.0134  0.2189
 2030SOL    HW2 8118   2.167   2.361   3.458 -1.3450  2.5555  0.0613
 2030SOL    HW3 8119   2.087   2.348   3.331 -1.0658 -0.2584  0.1425
 2030SOL    MW4 8120   2.095   2.335   3.417 -0.6630  0.3130  0.1880
 2031SOL     OW 8121   1.814   2.451   3.487  0.0342  0.0157 -0.1300
 2031SOL    HW2 8122   1.895   2.403   3.470  0.8226  1.3975 -0.3307
 2031SOL    HW3 8123   1.752   2.416   3.422  1.0763  0.4390 -1.3895
 2031SOL    MW4 8124   1.817   2.440   3.476  0.2757  0.2538 -0.3227
 2032SOL     OW 8125   1.814   2.700   3.398 -0.1096 -0.8424  0.2093
 2032SOL    HW2 8126   1.894   2.743   3.428  0.1553 -0.7318 -0.6488
 2032SOL    HW3 8127   1.817   2.613   3.438  0.6832 -1.0099 -0.2013
 2032SOL    MW4 8128   1.825   2.694   3.407  0.0300 -0.8499  0.0419
 2033SOL     OW 8129   2.058   2.847   3.465  0.0672 -0.3889 -0.0254
 2033SOL    HW2 8130   2.056   2.857   3.560  0.8317  0.9017 -0.1380
 2033SOL    HW3 8131   2.035   2.933   3.432  1.6334 -0.3339 -1.0170
 2033SOL    MW4 8132   2.055   2.859   3.473  0.3747 -0.2114 -0.1711
 2034SOL     OW 8133   2.016   3.122   3.389 -0.1572 -0.4134 -0.0509
 2034SOL    HW2 8134   2.102   3.149   3.422 -0.5284 -0.7188  1.1899
 2034SOL    HW3 8135   1.956   3.191   3.419 -0.7485 -1.4768  1.2811
 2034SOL    MW4 8136   2.020   3.135   3.398 -0.2842 -0.5940  0.2886
 2035SOL     OW 8137   1.808   3.290   3.466  0.0151  0.1234 -0.0219
 2035SOL    HW2 8138   1.805   3.275   3.561 -0.5777 -0.5688 -0.1415
 2035SOL    HW3 8139   1.828   3.383   3.457 -0.9335  0.4146  0.7961
 2035SOL    MW4 8140   1.810   3.300   3.477 -0.1883  0.0705  0.0702
 2036SOL     OW 8141   1.834   3.564   3.393  0.3585 -0.1906 -0.7273
 2036SOL    HW2 8142   1.749   3.573   3.436  1.3027  0.4006  1.0990
 2036SOL    HW3 8143   1.813   3.549   3.301 -1.7514 -1.6044 -0.0560
 2036SOL    MW4 8144   1.820   3.563   3.387  0.2047 -0.2991 -0.3978
 2037SOL     OW 8145   2.056   3.673   3.552 -0.4169  0.4719 -0.3520
 2037SOL    HW2 8146   2.133   3.637   3.508 -0.3853  0.1010  0.0040
 2037SOL    HW3 8147   1.982   3.650   3.495 -0.4013 -0.1957 -0.1043
 2037SOL    MW4 8148   2.056   3.665   3.538 -0.4107  0.3349 -0.2723
 2038SOL     OW 8149   2.003   3.906   3.425  0.2306  0.5911  0.1399
 2038SOL    HW2 8150   1.926   3.946   3.465  0.0018  0.1034  0.1918
 2038SOL    HW3 8151   2.024   3.832   3.482 -0.0809 -0.0919 -0.6142
 2038SOL    MW4 8152   1.995   3.902   3.438  0.1593  0.4366  0.0472
 2039SOL     OW 8153   1.767   4.025   3.551  0.2728 -0.1596  0.5444
 2039SOL    HW2 8154   1.750   4.009   3.643  0.2181 -1.8215  0.2611
 2039SOL    HW3 8155   1.706   3.967   3.505  1.7677 -0.9335 -0.5072
 2039SOL    MW4 8156   1.757   4.015   3.557  0.4628 -0.4810  0.3683
 2040SOL     OW 8157   1.799   4.279   3.423 -0.3154  0.1461  0.3285
 2040SOL    HW2 8158   1.779   4.192   3.455 -1.0683  0.2013  0.0131
 2040SOL    HW3 8159   1.791   4.272   3.328  0.5477  0.3259  0.2370
 2040SOL    MW4 8160   1.795   4.267   3.415 -0.3009  0.1771  0.2748
 2041SOL     OW 8161   2.020   4.393   3.534 -0.4287  0.2772 -0.1137
 2041SOL    HW2 8162   1.942   4.348   3.503 -1.1675  0.3111  1.6253
 2041SOL    HW3 8163   2.026   4.472   3.479 -1.3583  0.0507 -0.5532
 2041SOL    MW4 8164   2.011   4.398   3.523 -0.6488  0.2517  0.0578
 2042SOL     OW 8165   2.511   0.027   3.424  0.5276 -0.1292  0.0254
 2042SOL    HW2 8166   2.504  -0.067   3.440 -0.2159 -0.1401 -0.3165
 2042SOL    HW3 8167   2.514   0.035   3.328 -1.4776  0.3094 -0.0242
 2042SOL    MW4 8168   2.510   0.016   3.413  0.1650 -0.0728 -0.0262
 2043SOL     OW 8169   2.261   0.105   3.504 -0.0089  0.0204 -0.1280
 2043SOL    HW2 8170   2.253   0.193   3.468 -0.4624  0.1480  0.2822
 2043SOL    HW3 8171   2.350   0.078   3.481 -0.0949  0.3220 -0.8356
 2043SOL    MW4 8172   2.272   0.113   3.496 -0.0801  0.0770 -0.1672
 2044SOL     OW 8173   2.231   0.363   3.394  0.6211  0.1398 -0.1447
 2044SOL    HW2 8174   2.309   0.419   3.407  0.6039 -0.1021  1.0609
 2044SOL    HW3 8175   2.164   0.403   3.450  0.6080 -1.0730  0.7255
 2044SOL    MW4 8176   2.233   0.376   3.403  0.6171 -0.0521  0.1292
 2045SOL     OW 8177   2.454   0.509   3.463  0.3761  0.6676  0.2408
 2045SOL    HW2 8178   2.542   0.477   3.445 -0.1819 -0.6058 -0.3111
 2045SOL    HW3 8179   2.460   0.604   3.454  2.2039  0.8192  2.4616
 2045SOL    MW4 8180   2.466   0.518   3.460  0.5437  0.5196  0.4610
 2046SOL     OW 8181   2.467   0.800   3.441 -0.8835  0.0262 -0.2812
 2046SOL    HW2 8182   2.546   0.839   3.478 -1.0721  1.3318 -1.2279
 2046SOL    HW3 8183   2.477   0.811   3.346 -2.4073  0.6056 -0.3852
 2046SOL    MW4 8184   2.479   0.807   3.433 -1.1094  0.2749 -0.4198
 2047SOL     OW 8185   2.228   0.917   3.508 -0.7175  0.0229  0.0499
 2047SOL    HW2 8186   2.214   0.993   3.451 -0.7329  0.2887  0.4058
 2047SOL    HW3 8187   2.316   0.886   3.488 -0.8656 -0.1172 -0.3913
 2047SOL    MW4 8188   2.238   0.923   3.498 -0.7391  0.0395  0.0386
 2048SOL     OW 8189   2.194   1.151   3.349  0.0921  0.0579  0.0665
 2048SOL    HW2 8190   2.274   1.182   3.391 -0.1815 -0.1610  0.7595
 2048SOL    HW3 8191   2.124   1.202   3.391 -0.1279  0.2772 -0.5627
 2048SOL    MW4 8192   2.195   1.162   3.360  0.0270  0.0580  0.0749
 2049SOL     OW 8193   2.426   1.235   3.462 -0.3062  0.1339  0.0872
 2049SOL    HW2 8194   2.435   1.240   3.557 -1.1311  1.8613  0.1032
 2049SOL    HW3 8195   2.502   1.186   3.433  0.2667  0.0960  1.5875
 2049SOL    MW4 8196   2.437   1.229   3.471 -0.3395  0.3568  0.2873
 2050SOL     OW 8197   2.469   1.525   3.394 -0.0028 -0.1888  0.0653
 2050SOL    HW2 8198   2.449   1.433   3.413  0.5100 -0.1663  0.7070
 2050SOL    HW3 8199   2.502   1.525   3.304  0.4920 -0.7038  0.2468
 2050SOL    MW4 8200   2.471   1.513   3.385  0.1301 -0.2538  0.1739
 2051SOL     OW 8201   2.274   1.718   3.489 -0.1971  0.6987 -0.0257
 2051SOL    HW2 8202   2.281   1.721   3.585  1.0868 -0.3363 -0.0773
 2051SOL    HW3 8203   2.350   1.668   3.461 -0.6107  0.9285 -1.5978
 2051SOL    MW4 8204   2.285   1.712   3.498 -0.0823  0.5924 -0.2399
 2052SOL     OW 8205   2.256   1.966   3.385  0.3660  0.1790  0.2974
 2052SOL    HW2 8206   2.271   1.876   3.413 -0.5812 -0.0190  0.1749
 2052SOL    HW3 8207   2.259   1.963   3.290 -1.7087 -0.1007  0.2205
 2052SOL    MW4 8208   2.259   1.954   3.376 -0.0327  0.1160  0.2711
 2053SOL     OW 8209   2.495   2.077   3.494  0.4478 -0.1091  0.0242
 2053SOL    HW2 8210   2.470   2.098   3.584  1.1265 -0.2147  0.2476
 2053SOL    HW3 8211   2.418   2.036   3.456  0.1556 -0.0670  0.5658
 2053SOL    MW4 8212   2.482   2.074   3.501  0.4988 -0.1175  0.1252
 2054SOL     OW 8213   2.551   2.282   3.338  0.3163  0.3470 -0.2213
 2054SOL    HW2 8214   2.609   2.339   3.388 -0.8304  0.6296  0.8299
 2054SOL    HW3 8215   2.560   2.196   3.379 -1.0187  0.6934  0.8484
 2054SOL    MW4 8216   2.560   2.278   3.350 -0.0111  0.4300  0.0585
 2055SOL     OW 8217   2.358   2.414   3.552 -0.4439  0.4882  0.2035
 2055SOL    HW2 8218   2.346   2.498   3.508 -0.6469  0.9210  1.0987
 2055SOL    HW3 8219   2.405   2.361   3.487  1.8204  2.0493  0.4901
 2055SOL    MW4 8220   2.363   2.418   3.537 -0.1720  0.7513  0.3594
 2056SOL     OW 8221   2.257   2.651   3.426 -0.6964  0.2603  0.1110
 2056SOL    HW2 8222   2.179   2.699   3.453 -1.6966 -0.9133 -0.6300
 2056SOL    HW3 8223   2.265   2.669   3.332  1.0413  1.9108  0.5316
 2056SOL    MW4 8224   2.248   2.660   3.417 -0.5991  0.3232  0.0687
 2057SOL     OW 8225   2.444   2.831   3.499  0.0431 -0.1665 -0.3901
 2057SOL    HW2 8226   2.431   2.921   3.468  1.0652 -0.6274 -2.2353
 2057SOL    HW3 8227   2.372   2.782   3.460  0.4198 -0.4439 -0.7473
 2057SOL    MW4 8228   2.433   2.836   3.490  0.2277 -0.2639 -0.6807
 2058SOL     OW 8229   2.430   3.090   3.401 -0.4323 -0.0059 -0.2117
 2058SOL    HW2 8230   2.505   3.145   3.423 -0.6011  0.7338 -1.4191
 2058SOL    HW3 8231   2.408   3.115   3.311 -1.8081 -0.5789 -0.0440
 2058SOL    MW4 8232   2.437   3.101   3.392 -0.6361  0.0161 -0.3488
 2059SOL     OW 8233   2.233   3.244   3.521 -0.2907 -0.5839 -0.0290
 2059SOL    HW2 8234   2.231   3.236   3.616 -0.0786 -1.2734 -0.0765
 2059SOL    HW3 8235   2.310   3.193   3.494  0.5353  0.8561 -0.4494
 2059SOL    MW4 8236   2.243   3.236   3.530 -0.1538 -0.4849 -0.0907
 2060SOL     OW 8237   2.251   3.527   3.406  0.3523  0.2545  0.0347
 2060SOL    HW2 8238   2.228   3.446   3.452 -3.0809  1.2329  0.1813
 2060SOL    HW3 8239   2.243   3.505   3.313 -1.3310  0.5748  0.0819
 2060SOL    MW4 8240   2.247   3.514   3.400 -0.3227  0.4258  0.0603
 2061SOL     OW 8241   2.465   3.660   3.530 -0.0945  0.7225 -0.1240
 2061SOL    HW2 8242   2.470   3.740   3.478 -0.1494  1.0252  0.3314
 2061SOL    HW3 8243   2.402   3.605   3.484  1.6000  0.0291 -1.6718
 2061SOL    MW4 8244   2.457   3.663   3.517  0.1218  0.6709 -0.2681
 2062SOL     OW 8245   2.459   3.882   3.367 -0.3026  0.3213  0.0096
 2062SOL    HW2 8246   2.535   3.930   3.399 -1.4986  0.5501  2.6407
 2062SOL    HW3 8247   2.384   3.934   3.396 -1.5515 -1.7092  0.5464
 2062SOL    MW4 8248   2.459   3.895   3.375 -0.6252  0.0836  0.4276
 2063SOL     OW 8249   2.252   4.012   3.479 -0.0762  0.1667 -0.3133
 2063SOL    HW2 8250   2.249   4.104   3.453 -0.0143  0.6770  1.4718
 2063SOL    HW3 8251   2.166   3.978   3.453 -0.0808  0.7064 -1.0242
 2063SOL    MW4 8252   2.240   4.019   3.472 -0.0687  0.3052 -0.1716
 2064SOL     OW 8253   2.244   4.291   3.417 -0.0612  0.0767  0.0599
 2064SOL    HW2 8254   2.156   4.314   3.448 -0.5662  0.5331 -1.6317
 2064SOL    HW3 8255   2.238   4.299   3.322  1.8894  0.3154 -0.0591
 2064SOL    MW4 8256   2.231   4.295   3.409  0.1296  0.1684 -0.1790
 2065SOL     OW 8257   2.488   4.422   3.510 -0.2211  0.5782  0.1439
 2065SOL    HW2 8258   2.484   4.415   3.606 -0.3861 -0.7571  0.0473
 2065SOL    HW3 8259   2.411   4.375   3.480 -0.3188  1.2421 -0.6432
 2065SOL    MW4 8260   2.478   4.415   3.519 -0.2557  0.4896  0.0273
 2066SOL     OW 8261   2.883   0.020   3.397 -0.7040  0.3791  0.2253
 2066SOL    HW2 8262   2.815   0.072   3.440 -0.5031  1.6369 -0.9104
 2066SOL    HW3 8263   2.864   0.029   3.303 -0.3208 -1.1526 -0.0112
 2066SOL    MW4 8264   2.872   0.028   3.390 -0.6269  0.3429  0.0442
 2067SOL     OW 8265   2.691   0.185   3.576  0.5511 -0.5349 -0.5934
 2067SOL    HW2 8266   2.703   0.270   3.534  0.5785 -0.0715  0.3277
 2067SOL    HW3 8267   2.616   0.146   3.531 -0.3939  0.6143 -0.0571
 2067SOL    MW4 8268   2.683   0.191   3.565  0.4300 -0.3222 -0.4011
 2068SOL     OW 8269   2.718   0.403   3.424 -0.2986 -0.3247  0.4567
 2068SOL    HW2 8270   2.782   0.467   3.454 -0.5493  0.3376 -0.4192
 2068SOL    HW3 8271   2.732   0.396   3.329 -1.1166 -0.6184  0.3455
 2068SOL    MW4 8272   2.728   0.410   3.415 -0.4396 -0.2760  0.3265
 2069SOL     OW 8273   2.915   0.543   3.526 -0.3112 -0.4273 -0.7450
 2069SOL    HW2 8274   2.924   0.557   3.621  0.6865 -0.1152 -0.8778
 2069SOL    HW3 8275   2.930   0.629   3.488 -0.5211 -0.5927 -1.1995
 2069SOL    MW4 8276   2.918   0.556   3.534 -0.2072 -0.4080 -0.8225
 2070SOL     OW 8277   2.921   0.763   3.344 -0.0785  0.8365  0.4586
 2070SOL    HW2 8278   2.994   0.823   3.362  0.4748 -0.8978  4.5771
 2070SOL    HW3 8279   2.849   0.797   3.396 -0.7311 -0.2898  0.2974
 2070SOL    MW4 8280   2.921   0.775   3.353 -0.0916  0.4591  0.9807
 2071SOL     OW 8281   2.715   0.905   3.531 -0.5377 -0.0474  0.0203
 2071SOL    HW2 8282   2.720   0.937   3.621 -2.8425  1.3163 -0.2976
 2071SOL    HW3 8283   2.700   0.984   3.478  0.1749 -0.9019 -1.4979
 2071SOL    MW4 8284   2.713   0.920   3.536 -0.7478  0.0198 -0.2219
 2072SOL     OW 8285   2.656   1.117   3.358 -0.5536  0.0227 -0.3682
 2072SOL    HW2 8286   2.734   1.167   3.383  0.1039 -1.4183  0.5403
 2072SOL    HW3 8287   2.655   1.120   3.263 -0.3688  1.5134 -0.3415
 2072SOL    MW4 8288   2.666   1.124   3.349 -0.4425  0.0293 -0.2448
 2073SOL     OW 8289   2.873   1.261   3.464  0.1117 -0.7053 -0.2587
 2073SOL    HW2 8290   2.879   1.253   3.560 -1.1785 -1.5658 -0.2213
 2073SOL    HW3 8291   2.943   1.206   3.431  1.3766  0.6092  0.2011
 2073SOL    MW4 8292   2.883   1.253   3.473  0.1084 -0.6454 -0.1931
 2074SOL     OW 8293   2.921   1.518   3.400  0.2967  0.2966 -0.0059
 2074SOL    HW2 8294   2.847   1.567   3.436  0.6483 -0.3096  1.6052
 2074SOL    HW3 8295   2.905   1.428   3.429 -0.0823 -0.4813 -2.4933
 2074SOL    MW4 8296   2.909   1.512   3.409  0.2931  0.1140 -0.1215
 2075SOL     OW 8297   2.694   1.646   3.497 -0.5134  0.5001  0.2223
 2075SOL    HW2 8298   2.683   1.739   3.476  0.7608  0.6414  0.1139
 2075SOL    HW3 8299   2.617   1.604   3.459 -1.1284  1.5153  0.3186
 2075SOL    MW4 8300   2.682   1.653   3.489 -0.4264  0.6527  0.2207
 2076SOL     OW 8301   2.698   1.919   3.413 -0.5866 -1.0164  0.1610
 2076SOL    HW2 8302   2.631   1.979   3.443  0.6131  0.6269 -0.3544
 2076SOL    HW3 8303   2.696   1.926   3.318  1.0939 -0.0451  0.1749
 2076SOL    MW4 8304   2.689   1.928   3.404 -0.2066 -0.6714  0.0948
 2077SOL     OW 8305   2.912   2.072   3.497  0.1444 -0.4487  0.2866
 2077SOL    HW2 8306   2.912   2.084   3.592 -0.3529  0.5726  0.1566
 2077SOL    HW3 8307   2.842   2.008   3.482  1.1392 -1.6655  0.7287
 2077SOL    MW4 8308   2.903   2.065   3.508  0.2100 -0.4745  0.3278
 2078SOL     OW 8309   2.965   2.315   3.379 -0.1180  0.1300  0.0372
 2078SOL    HW2 8310   2.953   2.225   3.408  0.0633  0.8144  2.3434
 2078SOL    HW3 8311   2.949   2.312   3.284  0.1846 -2.3546  0.0331
 2078SOL    MW4 8312   2.961   2.303   3.370 -0.0541 -0.1075  0.3409
 2079SOL     OW 8313   2.719   2.446   3.488 -0.2312 -0.0800 -0.1192
 2079SOL    HW2 8314   2.713   2.420   3.580  0.2699  1.3192  0.3122
 2079SOL    HW3 8315   2.806   2.418   3.461  0.2041  0.8673  0.2701
 2079SOL    MW4 8316   2.729   2.439   3.497 -0.1076  0.2296 -0.0109
 2080SOL     OW 8317   2.696   2.734   3.427 -0.3440  0.1951  0.2226
 2080SOL    HW2 8318   2.707   2.644   3.460  0.1872 -0.0007 -0.4633
 2080SOL    HW3 8319   2.605   2.756   3.446 -0.5443 -0.5808  0.1905
 2080SOL    MW4 8320   2.686   2.725   3.434 -0.3003  0.0669  0.1279
 2081SOL     OW 8321   2.910   2.862   3.515  0.4271 -0.0664 -0.2034
 2081SOL    HW2 8322   2.897   2.868   3.609 -0.0012  1.8350 -0.3746
 2081SOL    HW3 8323   2.834   2.812   3.484 -0.5171  1.0730  0.2228
 2081SOL    MW4 8324   2.898   2.856   3.523  0.2460  0.3348 -0.1698
 2082SOL     OW 8325   2.891   3.118   3.426 -0.5238 -0.2471 -0.3600
 2082SOL    HW2 8326   2.869   3.027   3.446 -3.1397  0.5763  0.7117
 2082SOL    HW3 8327   2.917   3.117   3.334  0.7868 -2.2777  0.0025
 2082SOL    MW4 8328   2.891   3.106   3.417 -0.6960 -0.4064 -0.1708
 2083SOL     OW 8329   2.643   3.251   3.459  0.1402  0.2254  0.4404
 2083SOL    HW2 8330   2.664   3.244   3.552 -0.3350 -1.3944  0.4298
 2083SOL    HW3 8331   2.713   3.204   3.415 -0.3753 -0.1884  0.0583
 2083SOL    MW4 8332   2.655   3.244   3.466  0.0095 -0.0429  0.3886
 2084SOL     OW 8333   2.669   3.517   3.417  0.8062  0.0599 -0.4375
 2084SOL    HW2 8334   2.658   3.428   3.452 -0.4750 -0.0985 -1.2125
 2084SOL    HW3 8335   2.600   3.568   3.459  1.3620  0.6257 -0.2133
 2084SOL    MW4 8336   2.659   3.512   3.427  0.7105  0.1136 -0.5102
 2085SOL     OW 8337   2.923   3.626   3.476 -0.2276 -0.2837  0.4662
 2085SOL    HW2 8338   2.908   3.717   3.451  0.7964 -0.1751  0.2217
 2085SOL    HW3 8339   2.838   3.584   3.468 -0.4556  0.3722 -0.5854
 2085SOL    MW4 8340   2.910   3.633   3.472 -0.1226 -0.1828  0.2952
 2086SOL     OW 8341   2.893   3.894   3.377 -0.0227 -0.4775 -0.3619
 2086SOL    HW2 8342   2.979   3.930   3.396  0.1099 -1.6574  1.3978
 2086SOL    HW3 8343   2.831   3.959   3.410  0.1969 -0.1658 -0.5685
 2086SOL    MW4 8344   2.896   3.907   3.384  0.0237 -0.5921 -0.1570
 2087SOL     OW 8345   2.667   4.044   3.444  0.4648 -0.4634 -0.1942
 2087SOL    HW2 8346   2.664   4.037   3.540 -0.7676 -0.5114 -0.2193
 2087SOL    HW3 8347   2.689   4.136   3.428  0.5465 -0.4220  0.1452
 2087SOL    MW4 8348   2.669   4.055   3.455  0.3130 -0.4643 -0.1527
 2088SOL     OW 8349   2.702   4.310   3.352  0.2631  0.0768  0.0025
 2088SOL    HW2 8350   2.781   4.350   3.388  0.2322  0.4319 -0.3271
 2088SOL    HW3 8351   2.630   4.359   3.391  0.2392  0.8078 -0.9413
 2088SOL    MW4 8352   2.703   4.321   3.362  0.2559  0.2201 -0.1655
 2089SOL     OW 8353   2.926   4.423   3.441  0.4418  0.0785  0.2165
 2089SOL    HW2 8354   2.951   4.419   3.533 -0.1032 -1.2589  0.3140
 2089SOL    HW3 8355   2.898   4.514   3.427 -0.4048  0.0415  1.6086
 2089SOL    MW4 8356   2.926   4.435   3.451  0.2582 -0.1029  0.4130
 2090SOL     OW 8357   3.358   0.014   3.382 -0.1633 -0.0148  0.0644
 2090SOL    HW2 8358   3.288   0.076   3.401 -0.4771 -0.7120  1.2338
 2090SOL    HW3 8359   3.340  -0.017   3.293 -2.1152 -1.1789  0.8269
 2090SOL    MW4 8360   3.346   0.018   3.373 -0.4622 -0.2604  0.3193
 2091SOL     OW 8361   3.130   0.131   3.488  0.1842 -0.0536  0.6013
 2091SOL    HW2 8362   3.118   0.226   3.482  0.1401 -0.1595 -1.2358
 2091SOL    HW3 8363   3.055   0.094   3.442  0.7837 -0.9523  0.3423
 2091SOL    MW4 8364   3.119   0.139   3.481  0.2574 -0.1861  0.3248
 2092SOL     OW 8365   3.103   0.400   3.382  0.1779  0.2869 -0.0029
 2092SOL    HW2 8366   3.035   0.461   3.409  0.8069  0.8075  0.4177
 2092SOL    HW3 8367   3.101   0.402   3.286  0.2427  1.0288  0.0100
 2092SOL    MW4 8368   3.094   0.408   3.373  0.2694  0.4535  0.0543
 2093SOL     OW 8369   3.357   0.483   3.430  0.2263 -0.1797  0.0407
 2093SOL    HW2 8370   3.348   0.490   3.525 -0.3409 -0.2550 -0.0070
 2093SOL    HW3 8371   3.272   0.450   3.400  0.3589 -0.0317 -0.5034
 2093SOL    MW4 8372   3.344   0.480   3.438  0.1689 -0.1701 -0.0374
 2094SOL     OW 8373   3.376   0.754   3.358  0.2067  0.4506  0.1102
 2094SOL    HW2 8374   3.447   0.800   3.403  0.0187  1.5294 -0.6613
 2094SOL    HW3 8375   3.382   0.663   3.388  1.7615  0.5908  0.2163
 2094SOL    MW4 8376   3.386   0.748   3.368  0.3871  0.6114  0.0224
 2095SOL     OW 8377   3.138   0.880   3.442 -0.4945  0.1795  0.9542
 2095SOL    HW2 8378   3.140   0.969   3.406  0.4304  0.7575  2.3341
 2095SOL    HW3 8379   3.217   0.839   3.407  0.3782  0.7252  2.2106
 2095SOL    MW4 8380   3.149   0.887   3.433 -0.2573  0.3277  1.3020
 2096SOL     OW 8381   3.114   1.127   3.359 -0.0438 -0.4170 -0.1741
 2096SOL    HW2 8382   3.197   1.163   3.392  0.5916 -0.1451 -2.0119
 2096SOL    HW3 8383   3.120   1.135   3.264 -1.9475 -0.9417 -0.3674
 2096SOL    MW4 8384   3.126   1.133   3.351 -0.2112 -0.4503 -0.4421
 2097SOL     OW 8385   3.329   1.267   3.469  0.6209  0.1710  0.0044
 2097SOL    HW2 8386   3.412   1.229   3.440 -0.3704 -1.0973 -1.2476
 2097SOL    HW3 8387   3.337   1.360   3.447  0.7197 -0.3866 -2.5135
 2097SOL    MW4 8388   3.341   1.274   3.462  0.5032 -0.0699 -0.4930
 2098SOL     OW 8389   3.372   1.546   3.390 -0.1221 -0.0627 -0.1188
 2098SOL    HW2 8390   3.455   1.587   3.415 -0.1238 -0.3830  0.4065
 2098SOL    HW3 8391   3.306   1.592   3.440 -0.1456 -0.5618  0.3120
 2098SOL    MW4 8392   3.374   1.558   3.400 -0.1254 -0.1708  0.0074
 2099SOL     OW 8393   3.133   1.666   3.504  0.3581 -0.6652 -0.2928
 2099SOL    HW2 8394   3.126   1.749   3.457  0.0353 -0.6318 -0.1881
 2099SOL    HW3 8395   3.052   1.619   3.483  1.4515 -1.8273 -2.0101
 2099SOL    MW4 8396   3.121   1.670   3.495  0.4598 -0.8141 -0.5055
 2100SOL     OW 8397   3.122   1.933   3.411 -0.1826 -0.5891  0.0826
 2100SOL    HW2 8398   3.048   1.985   3.441  0.5724 -0.1051  1.1366
 2100SOL    HW3 8399   3.114   1.933   3.316 -1.3118 -0.2115  0.1683
 2100SOL    MW4 8400   3.111   1.940   3.402 -0.2320 -0.4754  0.2330
 2101SOL     OW 8401   3.360   2.072   3.486  0.6445  0.1972  0.1320
 2101SOL    HW2 8402   3.358   2.156   3.440  1.4917 -0.1165 -0.5034
 2101SOL    HW3 8403   3.274   2.035   3.472  0.7830  0.2573 -0.9357
 2101SOL    MW4 8404   3.349   2.079   3.478  0.7745  0.1637 -0.0927
 2102SOL     OW 8405   3.363   2.312   3.378 -0.3206  0.2531  0.3549
 2102SOL    HW2 8406   3.432   2.352   3.431  0.1915  1.2394 -1.0270
 2102SOL    HW3 8407   3.287   2.368   3.391 -0.0423  0.8093 -0.3500
 2102SOL    MW4 8408   3.362   2.324   3.387 -0.2163  0.4566  0.0796
 2103SOL     OW 8409   3.156   2.478   3.496  0.0104 -0.1302  0.0477
 2103SOL    HW2 8410   3.142   2.560   3.450  0.0619 -0.9890 -1.5281
 2103SOL    HW3 8411   3.084   2.422   3.468  0.4482 -0.9048  0.4614
 2103SOL    MW4 8412   3.145   2.481   3.487  0.0749 -0.3457 -0.1056
 2104SOL     OW 8413   3.105   2.720   3.386  0.2877 -0.2778  0.5571
 2104SOL    HW2 8414   3.188   2.756   3.419  0.5379 -0.2037 -0.1441
 2104SOL    HW3 8415   3.037   2.772   3.429  0.6318  0.4706  0.1838
 2104SOL    MW4 8416   3.107   2.731   3.396  0.3661 -0.1693  0.4153
 2105SOL     OW 8417   3.356   2.853   3.496 -0.3541 -0.0209  0.6203
 2105SOL    HW2 8418   3.431   2.807   3.458 -0.8297  0.4097 -0.9146
 2105SOL    HW3 8419   3.357   2.939   3.453 -1.7168 -0.0201  0.5735
 2105SOL    MW4 8420   3.366   2.859   3.485 -0.5967  0.0360  0.4117
 2106SOL     OW 8421   3.372   3.101   3.372 -0.0994 -0.4714  0.0196
 2106SOL    HW2 8422   3.448   3.154   3.398  0.2918 -0.6978 -0.6635
 2106SOL    HW3 8423   3.296   3.150   3.407  0.2666  0.4640 -0.4723
 2106SOL    MW4 8424   3.372   3.115   3.380  0.0005 -0.3778 -0.1354
 2107SOL     OW 8425   3.136   3.227   3.477  0.5247  0.1395  0.0912
 2107SOL    HW2 8426   3.134   3.316   3.441  2.2741 -0.5788 -1.8283
 2107SOL    HW3 8427   3.046   3.196   3.468  0.5607  0.6163 -2.0127
 2107SOL    MW4 8428   3.124   3.235   3.471  0.7603  0.1076 -0.4397
 2108SOL     OW 8429   3.154   3.491   3.391  0.5446 -0.0073  0.3171
 2108SOL    HW2 8430   3.065   3.516   3.416 -0.1628 -2.6865  0.6007
 2108SOL    HW3 8431   3.155   3.499   3.296 -0.5756 -1.6898  0.1410
 2108SOL    MW4 8432   3.142   3.496   3.382  0.3035 -0.5828  0.3313
 2109SOL     OW 8433   3.360   3.638   3.493 -0.2486 -0.1166 -0.2922
 2109SOL    HW2 8434   3.363   3.711   3.432 -1.1992  0.7135  0.6343
 2109SOL    HW3 8435   3.287   3.584   3.462  0.4241 -0.6597 -0.9491
 2109SOL    MW4 8436   3.350   3.640   3.481 -0.2852 -0.0788 -0.2566
 2110SOL     OW 8437   3.360   3.866   3.337 -0.1595  0.2130  0.2785
 2110SOL    HW2 8438   3.432   3.917   3.374  0.8559 -1.2557  0.3831
 2110SOL    HW3 8439   3.281   3.905   3.374  0.6068  1.5853  0.4779
 2110SOL    MW4 8440   3.359   3.878   3.347  0.0756  0.2003  0.3186
 2111SOL     OW 8441   3.151   3.994   3.457  0.0629 -0.2350 -0.0218
 2111SOL    HW2 8442   3.152   4.015   3.550  0.2220  0.2951 -0.1397
 2111SOL    HW3 8443   3.151   4.079   3.413  1.4142 -0.4731 -0.5152
 2111SOL    MW4 8444   3.151   4.008   3.464  0.2622 -0.1964 -0.1025
 2112SOL     OW 8445   3.129   4.253   3.358 -0.1746  0.0938  0.1191
 2112SOL    HW2 8446   3.211   4.301   3.372  0.1808 -0.9031  1.5123
 2112SOL    HW3 8447   3.061   4.320   3.368  0.4754  1.1782 -2.2063
 2112SOL    MW4 8448   3.131   4.268   3.361 -0.0420  0.1053 -0.0039
 2113SOL     OW 8449   3.340   4.398   3.478  0.0662 -0.5329  0.0079
 2113SOL    HW2 8450   3.338   4.390   3.573  1.5385 -1.9026 -0.0506
 2113SOL    HW3 8451   3.324   4.491   3.461  0.7488 -0.1027  1.6353
 2113SOL    MW4 8452   3.338   4.409   3.488  0.3505 -0.6568  0.2149
 2114SOL     OW 8453   3.804   4.622   3.380  0.1185  0.4940 -0.6893
 2114SOL    HW2 8454   3.725   4.663   3.417  0.2947  0.0753  0.1671
 2114SOL    HW3 8455   3.800   4.643   3.287 -2.8163 -2.3959 -1.2931
 2114SOL    MW4 8456   3.793   4.630   3.373 -0.2454  0.0575 -0.6560
 2115SOL     OW 8457   3.591   0.096   3.493  0.3298 -0.2876 -0.5641
 2115SOL    HW2 8458   3.594   0.186   3.461  0.7579 -0.3824 -0.7901
 2115SOL    HW3 8459   3.502   0.067   3.470  0.4673 -0.1931 -1.2367
 2115SOL    MW4 8460   3.579   0.104   3.486  0.4044 -0.2877 -0.6826
 2116SOL     OW 8461   3.582   0.338   3.387  0.4841 -0.4276 -0.0876
 2116SOL    HW2 8462   3.649   0.403   3.410  0.6659 -0.4038 -0.6545
 2116SOL    HW3 8463   3.500   0.388   3.387  0.1275 -0.9400  2.8001
 2116SOL    MW4 8464   3.580   0.353   3.390  0.4611 -0.4921  0.2186
 2117SOL     OW 8465   3.835   0.488   3.446  0.1671  0.4049  0.2230
 2117SOL    HW2 8466   3.819   0.502   3.539  1.9414 -0.7959  0.7385
 2117SOL    HW3 8467   3.922   0.448   3.442  0.5596  1.3724 -2.0239
 2117SOL    MW4 8468   3.844   0.485   3.458  0.4530  0.3741 -0.0055
 2118SOL     OW 8469   3.811   0.764   3.347  0.3559 -0.1534 -0.1383
 2118SOL    HW2 8470   3.881   0.811   3.393 -1.2690  0.5154  1.7264
 2118SOL    HW3 8471   3.828   0.672   3.365  0.2945  0.0546  1.0329
 2118SOL    MW4 8472   3.822   0.758   3.356  0.1334 -0.0377  0.2622
 2119SOL     OW 8473   3.588   0.890   3.454  0.5367 -0.0297  0.0926
 2119SOL    HW2 8474   3.602   0.930   3.540  1.1903  1.4196 -0.6640
 2119SOL    HW3 8475   3.670   0.845   3.434 -0.0095 -1.3080  0.7092
 2119SOL    MW4 8476   3.601   0.889   3.462  0.5509 -0.0071  0.0741
 2120SOL     OW 8477   3.577   1.163   3.376  0.1636 -0.5322  0.2308
 2120SOL    HW2 8478   3.598   1.070   3.382 -3.2217 -1.3521  0.0212
 2120SOL    HW3 8479   3.543   1.174   3.287 -0.5793  0.6612  0.6590
 2120SOL    MW4 8480   3.576   1.152   3.365 -0.3811 -0.4829  0.2596
 2121SOL     OW 8481   3.864   1.282   3.473  0.3955 -0.1596  0.2838
 2121SOL    HW2 8482   3.841   1.301   3.564 -0.8494  2.9798 -0.6197
 2121SOL    HW3 8483   3.781   1.261   3.431  0.7749 -0.2690 -0.4248
 2121SOL    MW4 8484   3.850   1.282   3.479  0.2813  0.2402  0.0711
 2122SOL     OW 8485   3.840   1.527   3.364 -0.0682 -0.1449 -0.1982
 2122SOL    HW2 8486   3.918   1.570   3.398 -0.7694  0.2041  0.9859
 2122SOL    HW3 8487   3.854   1.434   3.384 -0.1635 -0.0260  0.4409
 2122SOL    MW4 8488   3.852   1.520   3.371 -0.1733 -0.0831  0.0424
 2123SOL     OW 8489   3.613   1.649   3.478 -0.3204 -0.0630  0.5533
 2123SOL    HW2 8490   3.624   1.742   3.457 -1.9585 -0.1477 -0.8260
 2123SOL    HW3 8491   3.689   1.606   3.439  0.1487  0.6225  0.7013
 2123SOL    MW4 8492   3.624   1.656   3.470 -0.4746  0.0163  0.3908
 2124SOL     OW 8493   3.578   1.918   3.400 -0.2211 -0.1343 -0.2350
 2124SOL    HW2 8494   3.657   1.964   3.429 -1.0068  0.1427  1.5647
 2124SOL    HW3 8495   3.507   1.981   3.414 -1.2063 -1.5724  1.4861
 2124SOL    MW4 8496   3.579   1.933   3.406 -0.4548 -0.2875  0.2295
 2125SOL     OW 8497   3.794   2.068   3.509  0.2119  0.5804  0.1951
 2125SOL    HW2 8498   3.788   2.079   3.604 -0.9823  0.4191  0.1383
 2125SOL    HW3 8499   3.882   2.033   3.495 -0.1629 -0.8914  1.3945
 2125SOL    MW4 8500   3.805   2.065   3.520  0.0049  0.3650  0.3459
 2126SOL     OW 8501   3.779   2.318   3.383  0.0151 -0.2374 -0.4548
 2126SOL    HW2 8502   3.853   2.352   3.432 -0.2745 -1.0674  0.5753
 2126SOL    HW3 8503   3.765   2.230   3.419 -1.5559 -0.0320 -0.5440
 2126SOL    MW4 8504   3.787   2.311   3.394 -0.2304 -0.3198 -0.3307
 2127SOL     OW 8505   3.576   2.452   3.499  0.0384 -0.1370 -0.4461
 2127SOL    HW2 8506   3.577   2.536   3.454  0.5629  0.6449  1.0071
 2127SOL    HW3 8507   3.642   2.399   3.454 -0.6915  0.0163 -1.7233
 2127SOL    MW4 8508   3.585   2.456   3.487  0.0113 -0.0136 -0.4229
 2128SOL     OW 8509   3.567   2.721   3.392 -0.0924 -0.3231 -0.1102
 2128SOL    HW2 8510   3.645   2.744   3.442 -0.1755 -0.6204  0.1538
 2128SOL    HW3 8511   3.591   2.740   3.301 -0.2123  0.9669  0.1125
 2128SOL    MW4 8512   3.580   2.727   3.386 -0.1192 -0.1921 -0.0460
 2129SOL     OW 8513   3.802   2.819   3.518 -0.0570 -0.1175  0.1252
 2129SOL    HW2 8514   3.810   2.826   3.613 -0.6867  0.8715  0.1076
 2129SOL    HW3 8515   3.823   2.906   3.486 -0.4904 -0.2793 -0.5995
 2129SOL    MW4 8516   3.806   2.831   3.527 -0.1973 -0.0084  0.0273
 2130SOL     OW 8517   3.844   3.053   3.393  0.0690  0.1506 -0.0886
 2130SOL    HW2 8518   3.929   3.094   3.408  0.5243 -1.2712  1.3351
 2130SOL    HW3 8519   3.841   3.038   3.298  1.1052  0.8472 -0.2294
 2130SOL    MW4 8520   3.855   3.056   3.382  0.2658  0.0549  0.0807
 2131SOL     OW 8521   3.613   3.223   3.426  0.8236 -0.0690  0.4333
 2131SOL    HW2 8522   3.640   3.314   3.423 -0.0197  0.1526 -1.9250
 2131SOL    HW3 8523   3.693   3.173   3.412  1.5146  0.2469  3.1601
 2131SOL    MW4 8524   3.627   3.228   3.424  0.8035  0.0019  0.4819
 2132SOL     OW 8525   3.611   3.505   3.407 -0.2198 -0.0245  0.0481
 2132SOL    HW2 8526   3.532   3.543   3.445 -1.6989 -2.7548 -0.1568
 2132SOL    HW3 8527   3.600   3.516   3.313 -0.8020 -1.2175 -0.0281
 2132SOL    MW4 8528   3.599   3.511   3.400 -0.4917 -0.5421  0.0110
 2133SOL     OW 8529   3.820   3.629   3.506 -0.2799 -0.2754 -0.3112
 2133SOL    HW2 8530   3.815   3.627   3.602 -1.4329  0.9605 -0.3391
 2133SOL    HW3 8531   3.736   3.592   3.478 -0.8212  1.3123 -0.8310
 2133SOL    MW4 8532   3.808   3.624   3.515 -0.5035  0.0971 -0.3835
 2134SOL     OW 8533   3.822   3.884   3.387 -0.0742  0.2446 -0.0091
 2134SOL    HW2 8534   3.738   3.929   3.390  0.0490  0.5948 -1.6794
 2134SOL    HW3 8535   3.809   3.806   3.441 -1.6131  0.0584 -0.6386
 2134SOL    MW4 8536   3.809   3.879   3.395 -0.2610  0.2662 -0.3125
 2135SOL     OW 8537   3.562   4.007   3.451  0.0874 -0.7341  0.5743
 2135SOL    HW2 8538   3.576   4.023   3.544 -2.0303  0.0245  0.7772
 2135SOL    HW3 8539   3.549   4.094   3.413  1.9114 -0.9482 -0.6187
 2135SOL    MW4 8540   3.562   4.020   3.458  0.0487 -0.6622  0.4437
 2136SOL     OW 8541   3.553   4.274   3.362  0.6501 -0.2368 -0.0990
 2136SOL    HW2 8542   3.477   4.316   3.403  0.6020  0.4363 -0.8642
 2136SOL    HW3 8543   3.536   4.281   3.268  1.7357  0.0541 -0.2772
 2136SOL    MW4 8544   3.540   4.281   3.355  0.7870 -0.1096 -0.2235
 2137SOL     OW 8545   3.818   4.341   3.452 -0.0459  0.4460  0.2495
 2137SOL    HW2 8546   3.734   4.301   3.429  0.0876 -0.6522  1.6012
 2137SOL    HW3 8547   3.814   4.428   3.412 -0.7533 -0.5283 -1.8632
 2137SOL    MW4 8548   3.806   4.347   3.444 -0.1216  0.1726  0.1491
 2138SOL     OW 8549   4.285   4.649   3.418 -0.2747  0.0047  0.1974
 2138SOL    HW2 8550   4.281   4.562   3.456 -0.8688  0.8361  2.0678
 2138SOL    HW3 8551   4.349   4.696   3.471 -0.0736  0.7571 -0.6962
 2138SOL    MW4 8552   4.293   4.644   3.430 -0.3266  0.2137  0.3263
 2139SOL     OW 8553   4.033   0.070   3.503  0.2891 -0.4512 -0.1165
 2139SOL    HW2 8554   4.115   0.048   3.458  0.4051  1.4026 -0.8885
 2139SOL    HW3 8555   3.965   0.038   3.445  0.4548 -0.4478 -0.3147
 2139SOL    MW4 8556   4.035   0.063   3.489  0.3263 -0.2061 -0.2445
 2140SOL     OW 8557   4.067   0.340   3.413  0.1954  0.0466  0.1446
 2140SOL    HW2 8558   4.051   0.251   3.445  1.0778 -0.2258 -0.1369
 2140SOL    HW3 8559   4.083   0.329   3.320 -0.7581  0.6423 -0.0926
 2140SOL    MW4 8560   4.067   0.327   3.405  0.1860  0.0892  0.0762
 2141SOL     OW 8561   4.294   0.467   3.509  0.0677 -0.2579 -0.1140
 2141SOL    HW2 8562   4.293   0.555   3.471 -1.9692 -0.5008 -0.6690
 2141SOL    HW3 8563   4.205   0.436   3.499  0.4365 -1.8552  1.3677
 2141SOL    MW4 8564   4.282   0.475   3.503 -0.1523 -0.5007  0.0083
 2142SOL     OW 8565   4.249   0.718   3.363  0.0317 -0.2822  0.2652
 2142SOL    HW2 8566   4.308   0.788   3.391 -0.1686  0.5384 -1.3000
 2142SOL    HW3 8567   4.232   0.737   3.271 -0.9996 -1.7105  0.1517
 2142SOL    MW4 8568   4.255   0.730   3.355 -0.1308 -0.3624  0.0437
 2143SOL     OW 8569   4.027   0.853   3.489  0.7395  0.0306 -0.2563
 2143SOL    HW2 8570   4.059   0.934   3.449 -0.0235  0.9099  0.8473
 2143SOL    HW3 8571   4.088   0.786   3.461  1.0273  0.8801 -1.7087
 2143SOL    MW4 8572   4.039   0.855   3.480  0.6768  0.2587 -0.3023
 2144SOL     OW 8573   4.067   1.121   3.380  0.0671 -0.1476  0.1350
 2144SOL    HW2 8574   4.138   1.169   3.422  0.4310 -0.9563  0.4493
 2144SOL    HW3 8575   3.990   1.176   3.393  0.3522  0.0315  1.0689
 2144SOL    MW4 8576   4.066   1.135   3.387  0.1527 -0.2307  0.2997
 2145SOL     OW 8577   4.266   1.261   3.503  0.1709  0.1320  0.2708
 2145SOL    HW2 8578   4.278   1.340   3.449 -0.4488 -1.7264 -2.6799
 2145SOL    HW3 8579   4.346   1.210   3.488 -0.0489 -0.4523  1.0600
 2145SOL    MW4 8580   4.278   1.265   3.494  0.0601 -0.1903 -0.0144
 2146SOL     OW 8581   4.318   1.517   3.374 -0.3916  0.3841 -0.3524
 2146SOL    HW2 8582   4.246   1.567   3.411 -1.7316 -0.1055 -2.2690
 2146SOL    HW3 8583   4.298   1.510   3.281  0.2603 -2.8775 -0.3070
 2146SOL    MW4 8584   4.306   1.522   3.366 -0.4824 -0.1108 -0.5993
 2147SOL     OW 8585   4.091   1.645   3.493  0.3185 -0.3953 -0.2383
 2147SOL    HW2 8586   4.090   1.637   3.588 -0.7938 -0.7385 -0.2611
 2147SOL    HW3 8587   4.111   1.737   3.476 -0.7508 -0.0365  0.3657
 2147SOL    MW4 8588   4.093   1.656   3.503  0.0306 -0.3932 -0.1616
 2148SOL     OW 8589   4.038   1.946   3.449  0.2882 -0.2485 -0.6800
 2148SOL    HW2 8590   4.115   1.997   3.475  0.1902 -0.7176  0.5564
 2148SOL    HW3 8591   4.049   1.932   3.355  2.3388 -1.3613 -0.3077
 2148SOL    MW4 8592   4.049   1.951   3.440  0.5458 -0.4572 -0.4677
 2149SOL     OW 8593   4.300   2.079   3.506 -0.0999  0.0403  0.0903
 2149SOL    HW2 8594   4.278   2.166   3.473  0.2286  0.3208  0.6026
 2149SOL    HW3 8595   4.379   2.055   3.459  0.1469  0.2759  0.3773
 2149SOL    MW4 8596   4.308   2.088   3.496 -0.0240  0.1084  0.1957
 2150SOL     OW 8597   4.236   2.311   3.394  0.1775 -0.0100 -0.2671
 2150SOL    HW2 8598   4.164   2.366   3.427  0.2756  0.2265 -0.4462
 2150SOL    HW3 8599   4.233   2.323   3.299 -2.3652 -3.4251 -0.7299
 2150SOL    MW4 8600   4.226   2.320   3.386 -0.1450 -0.4293 -0.3518
 2151SOL     OW 8601   4.012   2.431   3.508  0.1892  0.3480  0.5576
 2151SOL    HW2 8602   4.000   2.425   3.603 -2.1740  2.2138  0.4307
 2151SOL    HW3 8603   4.026   2.524   3.492  0.7668  0.0167 -0.9404
 2151SOL    MW4 8604   4.013   2.442   3.519 -0.0464  0.5505  0.3432
 2152SOL     OW 8605   4.029   2.690   3.425  0.1314 -0.4525 -0.1881
 2152SOL    HW2 8606   4.101   2.753   3.429  0.2769 -0.4402 -2.1454
 2152SOL    HW3 8607   3.953   2.737   3.458  0.6691  0.0813  0.2943
 2152SOL    MW4 8608   4.029   2.705   3.430  0.2215 -0.3804 -0.3827
 2153SOL     OW 8609   4.252   2.843   3.486 -0.1464 -0.0789 -0.6261
 2153SOL    HW2 8610   4.255   2.842   3.581 -0.3297 -1.1150 -0.6163
 2153SOL    HW3 8611   4.326   2.788   3.459  0.1035  0.4854 -1.0857
 2153SOL    MW4 8612   4.262   2.835   3.495 -0.1376 -0.1412 -0.6854
 2154SOL     OW 8613   4.288   3.105   3.414  0.1494  0.4494 -0.1352
 2154SOL    HW2 8614   4.278   3.011   3.432  1.7954  0.0460 -1.2085
 2154SOL    HW3 8615   4.284   3.112   3.319 -1.3371  1.6582  0.0094
 2154SOL    MW4 8616   4.286   3.093   3.404  0.1704  0.5557 -0.2578
 2155SOL     OW 8617   4.046   3.195   3.491 -0.1616  0.3252 -0.1441
 2155SOL    HW2 8618   4.031   3.287   3.469  2.0646  1.1674  1.6700
 2155SOL    HW3 8619   4.134   3.177   3.458 -0.2721 -0.9330  0.2371
 2155SOL    MW4 8620   4.056   3.205   3.483  0.1175  0.2703  0.1456
 2156SOL     OW 8621   3.989   3.457   3.400 -0.8632 -0.1152  0.0433
 2156SOL    HW2 8622   4.072   3.499   3.422 -1.6333  2.0329 -0.9215
 2156SOL    HW3 8623   3.924   3.506   3.449 -1.6605 -1.1486  0.0338
 2156SOL    MW4 8624   3.992   3.469   3.409 -1.0700  0.0319 -0.0853
 2157SOL     OW 8625   4.225   3.547   3.492  0.1818  0.1682  0.3599
 2157SOL    HW2 8626   4.237   3.552   3.587 -0.0172  0.4634  0.3722
 2157SOL    HW3 8627   4.223   3.639   3.464  0.4109  0.0781  0.0492
 2157SOL    MW4 8628   4.226   3.560   3.501  0.1858  0.1953  0.3205
 2158SOL     OW 8629   4.242   3.815   3.420  0.6661  0.6539  0.0678
 2158SOL    HW2 8630   4.323   3.841   3.466  1.0539 -0.8738  0.2691
 2158SOL    HW3 8631   4.263   3.827   3.328  1.9155 -1.8768 -0.0086
 2158SOL    MW4 8632   4.256   3.820   3.414  0.8821  0.1185  0.0843
 2159SOL     OW 8633   4.044   3.982   3.531 -0.0965  0.4113 -0.1667
 2159SOL    HW2 8634   4.112   3.927   3.493 -0.0597  0.6833 -0.5015
 2159SOL    HW3 8635   3.964   3.953   3.487 -0.4075 -0.7836  1.1440
 2159SOL    MW4 8636   4.042   3.971   3.520 -0.1327  0.2895 -0.0379
 2160SOL     OW 8637   4.086   4.243   3.425  0.0255  0.6845  0.1427
 2160SOL    HW2 8638   4.083   4.155   3.461 -0.1288  0.0638 -1.3726
 2160SOL    HW3 8639   3.999   4.279   3.444  0.0106  0.4348  0.5526
 2160SOL    MW4 8640   4.074   4.236   3.432  0.0032  0.5697 -0.0031
 2161SOL     OW 8641   4.298   4.389   3.491 -0.1626  0.4495  0.0647
 2161SOL    HW2 8642   4.279   4.373   3.584  1.2091 -1.3040  0.0597
 2161SOL    HW3 8643   4.224   4.349   3.445  0.3566 -0.8463  0.3198
 2161SOL    MW4 8644   4.286   4.381   3.498  0.0869  0.0472  0.0977
 2162SOL     OW 8645   0.240   4.620   3.884  0.0620  0.5761  0.9382
 2162SOL    HW2 8646   0.263   4.650   3.972 -0.5409  2.5016  0.4811
 2162SOL    HW3 8647   0.149   4.649   3.873  0.4606  1.2678 -0.6688
 2162SOL    MW4 8648   0.231   4.628   3.894  0.0350  0.9214  0.6659
 2163SOL     OW 8649   4.481   0.067   3.810 -0.3050 -0.3628 -0.0278
 2163SOL    HW2 8650   4.473   0.159   3.835  1.4377  0.0899 -1.0274
 2163SOL    HW3 8651   4.508   0.069   3.718  1.3650 -1.8177  0.3809
 2163SOL    MW4 8652   4.484   0.079   3.801  0.1453 -0.4951 -0.1058
 2164SOL     OW 8653   4.456   0.328   3.896  0.4150  0.0125 -0.1946
 2164SOL    HW2 8654   4.389   0.379   3.849  0.3119 -0.3811 -0.4817
 2164SOL    HW3 8655   4.539   0.364   3.865  0.3549 -0.4814 -0.9601
 2164SOL    MW4 8656   4.458   0.340   3.885  0.3935 -0.1046 -0.3335
 2165SOL     OW 8657   0.189   0.428   3.799 -0.2213  0.0942 -0.2669
 2165SOL    HW2 8658   0.192   0.523   3.816 -1.0067  0.0939 -0.0829
 2165SOL    HW3 8659   0.189   0.421   3.704 -1.2897  0.3331 -0.2919
 2165SOL    MW4 8660   0.189   0.440   3.789 -0.4659  0.1257 -0.2459
 2166SOL     OW 8661   0.238   0.696   3.860  0.6339  0.3501 -0.1440
 2166SOL    HW2 8662   0.236   0.708   3.955  2.5252  0.8018 -0.1443
 2166SOL    HW3 8663   0.167   0.751   3.828  0.4041  0.7099  0.9578
 2166SOL    MW4 8664   0.228   0.705   3.869  0.8531  0.4571  0.0013
 2167SOL     OW 8665   0.025   0.858   3.804  0.1590 -0.1100  0.2447
 2167SOL    HW2 8666  -0.049   0.817   3.850  0.3860  0.8925  1.5226
 2167SOL    HW3 8667   0.009   0.952   3.813  0.7124  0.1022 -0.9256
 2167SOL    MW4 8668   0.013   0.865   3.811  0.2619  0.0503  0.2589
 2168SOL     OW 8669   4.486   1.128   3.875 -0.2104 -0.2412 -0.3615
 2168SOL    HW2 8670   4.411   1.172   3.835  0.1592 -0.4281 -1.2644
 2168SOL    HW3 8671   4.561   1.156   3.823  0.1779 -1.0567 -0.2486
 2168SOL    MW4 8672   4.486   1.138   3.863 -0.1104 -0.3735 -0.4657
 2169SOL     OW 8673   0.222   1.245   3.753 -0.1599 -0.0063  0.3782
 2169SOL    HW2 8674   0.197   1.332   3.785 -0.3408  0.4686 -1.0071
 2169SOL    HW3 8675   0.252   1.260   3.663  1.2272 -1.1637  0.6220
 2169SOL    MW4 8676   0.222   1.258   3.745 -0.0007 -0.0963  0.2276
 2170SOL     OW 8677   0.203   1.490   3.862  0.0130 -0.1155 -0.0403
 2170SOL    HW2 8678   0.213   1.508   3.955 -0.4991 -0.4399  0.0795
 2170SOL    HW3 8679   0.123   1.536   3.836  0.2475  0.1146 -0.3542
 2170SOL    MW4 8680   0.194   1.498   3.871 -0.0236 -0.1280 -0.0659
 2171SOL     OW 8681   4.478   1.642   3.766 -0.2056 -0.7228 -0.3426
 2171SOL    HW2 8682   4.493   1.727   3.806  0.7229 -1.7907  1.6203
 2171SOL    HW3 8683   4.479   1.660   3.671  1.6564  1.1647  0.0066
 2171SOL    MW4 8684   4.480   1.655   3.758  0.1626 -0.6147 -0.0375
 2172SOL     OW 8685   0.021   1.914   3.856 -0.4367 -0.4862  0.4884
 2172SOL    HW2 8686   0.010   1.904   3.951 -0.2646 -1.2272  0.4328
 2172SOL    HW3 8687  -0.055   1.965   3.828 -0.6750 -0.5701  0.9761
 2172SOL    MW4 8688   0.010   1.919   3.865 -0.4454 -0.5950  0.5454
 2173SOL     OW 8689   0.239   2.068   3.744 -0.1667  0.1216  0.2520
 2173SOL    HW2 8690   0.234   2.150   3.794  0.7151  0.8289 -0.8040
 2173SOL    HW3 8691   0.160   2.020   3.771 -1.3264  1.8206  0.0138
 2173SOL    MW4 8692   0.228   2.073   3.754 -0.2034  0.4390  0.0812
 2174SOL     OW 8693   0.248   2.328   3.879  0.1624  0.7865  0.2733
 2174SOL    HW2 8694   0.239   2.296   3.969 -0.7924 -2.7173 -1.0251
 2174SOL    HW3 8695   0.159   2.358   3.856 -0.2844 -1.1136 -0.5132
 2174SOL    MW4 8696   0.235   2.328   3.888 -0.0225  0.0735 -0.0018
 2175SOL     OW 8697   0.035   2.459   3.756  0.0460  0.4388  0.3628
 2175SOL    HW2 8698  -0.056   2.436   3.774 -0.0767  1.0887  0.5858
 2175SOL    HW3 8699   0.040   2.552   3.776  0.4932  0.6431 -0.7141
 2175SOL    MW4 8700   0.024   2.468   3.761  0.0888  0.5515  0.2502
 2176SOL     OW 8701   0.006   2.720   3.823  0.1253  0.0533  0.0933
 2176SOL    HW2 8702   0.022   2.707   3.916  0.4139 -0.8669 -0.0850
 2176SOL    HW3 8703   0.086   2.760   3.790 -0.0134  0.4682  0.2551
 2176SOL    MW4 8704   0.019   2.724   3.831  0.1451 -0.0134  0.0911
 2177SOL     OW 8705   0.239   2.854   3.776  0.0030 -0.5478  0.1357
 2177SOL    HW2 8706   0.309   2.802   3.817  1.8007  2.0176  0.4447
 2177SOL    HW3 8707   0.241   2.829   3.684  0.8883 -0.9717  0.2659
 2177SOL    MW4 8708   0.249   2.844   3.769  0.3570 -0.2652  0.1937
 2178SOL     OW 8709   0.270   3.106   3.894  0.0377  0.1025  0.4377
 2178SOL    HW2 8710   0.267   3.081   3.986 -1.9964 -1.1738  0.0737
 2178SOL    HW3 8711   0.274   3.023   3.847 -0.2840  0.6954 -0.6495
 2178SOL    MW4 8712   0.270   3.092   3.900 -0.2731  0.0124  0.2462
 2179SOL     OW 8713   4.490   3.204   3.779 -0.3665  0.1056  0.4177
 2179SOL    HW2 8714   4.573   3.170   3.813 -0.3790  0.0779  0.4204
 2179SOL    HW3 8715   4.500   3.201   3.684 -1.3408 -2.3389  0.3572
 2179SOL    MW4 8716   4.502   3.199   3.771 -0.4967 -0.2206  0.4100
 2180SOL     OW 8717   0.015   3.476   3.871 -0.4214  0.0286 -0.0651
 2180SOL    HW2 8718   0.097   3.520   3.846 -0.8525  0.3172 -0.9919
 2180SOL    HW3 8719   0.024   3.387   3.837 -0.6608  0.1788 -0.5222
 2180SOL    MW4 8720   0.027   3.470   3.863 -0.5099  0.0865 -0.2477
 2181SOL     OW 8721   0.242   3.601   3.779 -0.0388  0.1995  0.5598
 2181SOL    HW2 8722   0.313   3.548   3.814  0.4945 -0.6042 -1.6135
 2181SOL    HW3 8723   0.253   3.686   3.820  0.8795 -0.5426  1.8825
 2181SOL    MW4 8724   0.253   3.605   3.789  0.1527 -0.0044  0.4476
 2182SOL     OW 8725   0.204   3.886   3.874 -0.2148 -0.2929 -0.0355
 2182SOL    HW2 8726   0.253   3.876   3.956  0.7915 -1.7779 -0.8064
 2182SOL    HW3 8727   0.258   3.944   3.821 -0.2218 -0.3937 -0.1522
 2182SOL    MW4 8728   0.218   3.892   3.878 -0.0829 -0.5021 -0.1526
 2183SOL     OW 8729   4.455   3.982   3.783  0.0722  0.4366 -0.6456
 2183SOL    HW2 8730   4.381   3.937   3.824  0.0416 -0.3512 -1.5692
 2183SOL    HW3 8731   4.532   3.936   3.816  0.0682  0.0960 -1.1122
 2183SOL    MW4 8732   4.455   3.970   3.793  0.0677  0.2877 -0.8290
 2184SOL     OW 8733   4.459   4.241   3.899 -0.0748 -0.3953 -0.1751
 2184SOL    HW2 8734   4.544   4.281   3.878 -0.3972  0.6943  0.5345
 2184SOL    HW3 8735   4.464   4.153   3.863  1.3085 -0.2833 -0.2794
 2184SOL    MW4 8736   4.471   4.235   3.892  0.0652 -0.2368 -0.0953
 2185SOL     OW 8737   0.223   4.354   3.797 -0.3712  0.0206  0.3557
 2185SOL    HW2 8738   0.301   4.320   3.841 -0.8867  0.0748  1.3319
 2185SOL    HW3 8739   0.222   4.447   3.819 -0.7094  0.0162  0.3655
 2185SOL    MW4 8740   0.233   4.362   3.806 -0.4839  0.0271  0.4858
 2186SOL     OW 8741   0.688   4.624   3.876  0.0248  0.0479  0.0126
 2186SOL    HW2 8742   0.689   4.533   3.848  1.5269 -0.3138  1.2085
 2186SOL    HW3 8743   0.601   4.656   3.850 -1.4578 -2.3959  1.7647
 2186SOL    MW4 8744   0.677   4.616   3.869  0.0273 -0.3222  0.4016
 2187SOL     OW 8745   0.455   0.069   3.761  0.1176  0.0083  0.2399
 2187SOL    HW2 8746   0.447   0.161   3.787 -0.9286  0.2806 -0.9925
 2187SOL    HW3 8747   0.379   0.027   3.800 -0.7115  0.1492 -1.1997
 2187SOL    MW4 8748   0.444   0.076   3.769 -0.1298  0.0628 -0.1127
 2188SOL     OW 8749   0.440   0.322   3.855 -0.2527 -0.0721  0.3087
 2188SOL    HW2 8750   0.501   0.380   3.809 -0.9922 -0.6260 -1.4091
 2188SOL    HW3 8751   0.353   0.355   3.832 -0.6429 -0.9037  0.5722
 2188SOL    MW4 8752   0.437   0.334   3.846 -0.4017 -0.2549  0.1168
 2189SOL     OW 8753   0.706   0.481   3.813 -0.3992 -1.1616  0.2166
 2189SOL    HW2 8754   0.781   0.436   3.852  0.1141 -0.5059 -0.0164
 2189SOL    HW3 8755   0.702   0.565   3.860  1.2295  0.3475 -2.2739
 2189SOL    MW4 8756   0.715   0.486   3.825 -0.1166 -0.8760 -0.1427
 2190SOL     OW 8757   0.715   0.735   3.917  0.1425  0.1698 -0.3442
 2190SOL    HW2 8758   0.789   0.780   3.877 -0.5285  1.4471 -0.1569
 2190SOL    HW3 8759   0.639   0.764   3.867 -0.4989  0.5328  0.8243
 2190SOL    MW4 8760   0.714   0.744   3.906 -0.0306  0.3862 -0.1653
 2191SOL     OW 8761   0.485   0.812   3.794  0.3375 -0.0714 -0.2158
 2191SOL    HW2 8762   0.462   0.902   3.818 -0.2786  0.0219 -1.1666
 2191SOL    HW3 8763   0.411   0.760   3.824 -0.2157 -0.0154 -1.4599
 2191SOL    MW4 8764   0.472   0.817   3.801  0.1832 -0.0517 -0.5054
 2192SOL     OW 8765   0.423   1.082   3.862  0.1409 -0.4252 -0.0620
 2192SOL    HW2 8766   0.507   1.119   3.836  0.0987 -0.5759 -0.4096
 2192SOL    HW3 8767   0.357   1.137   3.820  0.0649 -0.3420  0.1642
 2192SOL    MW4 8768   0.425   1.094   3.853  0.1253 -0.4341 -0.0780
 2193SOL     OW 8769   0.637   1.228   3.778  0.3120 -0.2962  0.3287
 2193SOL    HW2 8770   0.719   1.197   3.817  0.8894  0.2590 -0.4315
 2193SOL    HW3 8771   0.658   1.243   3.686 -0.3787  0.7900  0.3331
 2193SOL    MW4 8772   0.650   1.226   3.771  0.2971 -0.0796  0.2290
 2194SOL     OW 8773   0.662   1.493   3.899 -0.3663 -0.5829 -0.2784
 2194SOL    HW2 8774   0.745   1.527   3.864  0.4664 -0.2581  1.9199
 2194SOL    HW3 8775   0.664   1.400   3.879 -0.1539 -0.3163 -1.5399
 2194SOL    MW4 8776   0.674   1.485   3.892 -0.2284 -0.5049 -0.1548
 2195SOL     OW 8777   0.435   1.625   3.812  0.3670  0.3268  0.0584
 2195SOL    HW2 8778   0.508   1.566   3.829  0.3107 -0.1576 -1.2667
 2195SOL    HW3 8779   0.356   1.572   3.825  0.2746  0.6158  0.6682
 2195SOL    MW4 8780   0.434   1.610   3.816  0.3474  0.3010 -0.0360
 2196SOL     OW 8781   0.417   1.909   3.893  0.3690  0.1127 -0.5533
 2196SOL    HW2 8782   0.395   1.820   3.865 -0.7705 -0.0654  0.8933
 2196SOL    HW3 8783   0.369   1.965   3.833 -0.3688 -0.2527 -0.3059
 2196SOL    MW4 8784   0.408   1.904   3.881  0.1213  0.0410 -0.3298
 2197SOL     OW 8785   0.664   2.004   3.824  0.5554  0.1103  0.0460
 2197SOL    HW2 8786   0.650   2.098   3.811 -0.0885  0.0647  0.4172
 2197SOL    HW3 8787   0.577   1.969   3.844  0.6815 -0.6754 -0.7383
 2197SOL    MW4 8788   0.651   2.012   3.825  0.4871  0.0006 -0.0085
 2198SOL     OW 8789   0.696   2.289   3.779 -0.0784  0.2751 -0.5336
 2198SOL    HW2 8790   0.774   2.339   3.758  0.8039 -0.2155  1.4210
 2198SOL    HW3 8791   0.625   2.353   3.781  0.8535  1.2932  0.8626
 2198SOL    MW4 8792   0.697   2.304   3.777  0.1610  0.3447 -0.0915
 2199SOL     OW 8793   0.481   2.479   3.795 -0.3066  0.2618  0.0432
 2199SOL    HW2 8794   0.399   2.453   3.836 -0.0944 -0.2124  0.1712
 2199SOL    HW3 8795   0.463   2.477   3.701 -0.4091  0.0602  0.0685
 2199SOL    MW4 8796   0.468   2.476   3.788 -0.2921  0.1726  0.0634
 2200SOL     OW 8797   0.468   2.746   3.886 -0.2680 -0.3034 -0.2284
 2200SOL    HW2 8798   0.547   2.797   3.865 -0.2869  0.0663  0.5911
 2200SOL    HW3 8799   0.487   2.659   3.850  0.5465 -0.2394  0.0197
 2200SOL    MW4 8800   0.481   2.741   3.878 -0.1630 -0.2462 -0.0875
 2201SOL     OW 8801   0.713   2.830   3.748  0.1532 -0.0707 -0.2681
 2201SOL    HW2 8802   0.787   2.776   3.777  1.0974  1.2554 -0.1556
 2201SOL    HW3 8803   0.704   2.810   3.655 -0.0768 -1.0766 -0.0369
 2201SOL    MW4 8804   0.722   2.820   3.740  0.2474 -0.0285 -0.2227
 2202SOL     OW 8805   0.706   3.067   3.903  0.1588 -0.2414 -0.5660
 2202SOL    HW2 8806   0.729   3.042   3.992 -1.1340 -1.2612 -0.5027
 2202SOL    HW3 8807   0.722   2.988   3.851  1.3945  0.4992 -1.3327
 2202SOL    MW4 8808   0.711   3.054   3.907  0.1512 -0.2783 -0.6588
 2203SOL     OW 8809   0.498   3.188   3.765  0.1363  0.4775  0.4079
 2203SOL    HW2 8810   0.569   3.150   3.817 -0.2516 -1.6264 -0.5491
 2203SOL    HW3 8811   0.419   3.171   3.817  0.0302  0.5127  0.2571
 2203SOL    MW4 8812   0.497   3.181   3.779  0.0711  0.2046  0.2618
 2204SOL     OW 8813   0.453   3.447   3.846  0.7525 -0.0672 -0.2150
 2204SOL    HW2 8814   0.515   3.503   3.798  1.5099 -1.2590 -0.6651
 2204SOL    HW3 8815   0.467   3.360   3.809 -0.3092 -0.5823  0.5801
 2204SOL    MW4 8816   0.463   3.443   3.835  0.7124 -0.2924 -0.1695
 2205SOL     OW 8817   0.644   3.620   3.744 -0.0720  0.5939 -0.7722
 2205SOL    HW2 8818   0.630   3.711   3.770  1.4564  0.3014  1.1647
 2205SOL    HW3 8819   0.666   3.624   3.651  1.6459  2.3607 -0.3075
 2205SOL    MW4 8820   0.645   3.632   3.735  0.3563  0.7884 -0.4554
 2206SOL     OW 8821   0.592   3.874   3.838 -0.2748 -0.1910 -0.3487
 2206SOL    HW2 8822   0.578   3.852   3.930 -0.0975  2.1902  0.2842
 2206SOL    HW3 8823   0.683   3.903   3.834 -0.4939  0.4055 -1.1353
 2206SOL    MW4 8824   0.602   3.875   3.850 -0.2803  0.2019 -0.3689
 2207SOL     OW 8825   0.395   4.019   3.717  0.1091  0.2824 -0.4042
 2207SOL    HW2 8826   0.465   3.970   3.760  1.0830  1.7120 -0.3093
 2207SOL    HW3 8827   0.411   4.006   3.623 -1.2508 -1.7737 -0.3878
 2207SOL    MW4 8828   0.406   4.011   3.710  0.0582  0.1998 -0.3895
 2208SOL     OW 8829   0.461   4.231   3.871 -0.2133  0.2922  0.1011
 2208SOL    HW2 8830   0.547   4.252   3.835  0.2918 -0.5693  0.7966
 2208SOL    HW3 8831   0.431   4.157   3.819  0.5814 -1.0510  1.5049
 2208SOL    MW4 8832   0.469   4.224   3.859 -0.0418  0.0013  0.3781
 2209SOL     OW 8833   0.691   4.355   3.807 -0.4863  0.2821  0.6278
 2209SOL    HW2 8834   0.774   4.312   3.827 -0.0432  1.4078  1.2837
 2209SOL    HW3 8835   0.688   4.357   3.711 -0.5682 -1.2782  0.5882
 2209SOL    MW4 8836   0.701   4.350   3.797 -0.4387  0.2248  0.7091
 2210SOL     OW 8837   1.132   4.666   3.881 -0.0313  0.2580  0.1368
 2210SOL    HW2 8838   1.205   4.696   3.827  0.4097 -0.3794  0.3698
 2210SOL    HW3 8839   1.115   4.577   3.850 -0.7818  0.4435  0.0117
 2210SOL    MW4 8840   1.140   4.658   3.870 -0.0721  0.1984  0.1510
 2211SOL     OW 8841   0.905   0.124   3.820 -0.0876 -0.3428 -0.6104
 2211SOL    HW2 8842   0.985   0.082   3.851 -0.1627  0.4586  0.7134
 2211SOL    HW3 8843   0.835   0.064   3.844 -0.1519  0.3066  0.8818
 2211SOL    MW4 8844   0.906   0.111   3.827 -0.1060 -0.1514 -0.2388
 2212SOL     OW 8845   0.946   0.373   3.911 -0.1349 -0.2074  0.1479
 2212SOL    HW2 8846   0.939   0.358   4.006 -0.2960 -0.2630  0.1281
 2212SOL    HW3 8847   0.946   0.285   3.873  1.7298 -0.2590  0.2071
 2212SOL    MW4 8848   0.945   0.360   3.919  0.0899 -0.2216  0.1531
 2213SOL     OW 8849   1.143   0.531   3.796 -0.5973 -0.0149  0.4628
 2213SOL    HW2 8850   1.220   0.478   3.814 -1.0021 -0.1230  1.8964
 2213SOL    HW3 8851   1.073   0.491   3.848 -1.1815  1.2056  0.6379
 2213SOL    MW4 8852   1.144   0.519   3.805 -0.7278  0.1319  0.6751
 2214SOL     OW 8853   1.150   0.793   3.917 -0.2294 -0.3245  0.1301
 2214SOL    HW2 8854   1.154   0.785   4.012  1.2791 -2.0960 -0.0591
 2214SOL    HW3 8855   1.153   0.703   3.885  0.3367  0.2927 -1.6241
 2214SOL    MW4 8856   1.151   0.780   3.925  0.0443 -0.4768 -0.1263
 2215SOL     OW 8857   0.947   0.879   3.761  0.0740  0.4391 -0.2201
 2215SOL    HW2 8858   1.030   0.848   3.798  0.1089  0.0014 -0.6727
 2215SOL    HW3 8859   0.950   0.853   3.669 -0.1096  1.3468 -0.4866
 2215SOL    MW4 8860   0.958   0.871   3.754  0.0544  0.5011 -0.3150
 2216SOL     OW 8861   0.877   1.131   3.884 -0.2470 -0.0652  0.0642
 2216SOL    HW2 8862   0.874   1.128   3.979 -1.8394 -1.0620  0.0023
 2216SOL    HW3 8863   0.908   1.043   3.859 -2.4502 -0.7264 -0.4089
 2216SOL    MW4 8864   0.881   1.119   3.893 -0.7478 -0.2840 -0.0064
 2217SOL     OW 8865   1.125   1.264   3.812  0.1209  0.4224  0.4469
 2217SOL    HW2 8866   1.118   1.347   3.859  1.2463  0.2871  0.8872
 2217SOL    HW3 8867   1.037   1.227   3.814 -0.5350  1.9020 -0.3138
 2217SOL    MW4 8868   1.113   1.270   3.818  0.1828  0.5998  0.4046
 2218SOL     OW 8869   1.115   1.536   3.890  0.2551 -0.3336  0.7715
 2218SOL    HW2 8870   1.109   1.556   3.983  2.1347  2.7178  0.3072
 2218SOL    HW3 8871   1.203   1.563   3.865 -0.1453 -1.3050 -1.8608
 2218SOL    MW4 8872   1.125   1.542   3.899  0.4503 -0.0591  0.3629
 2219SOL     OW 8873   0.882   1.607   3.776 -0.0382 -0.4093  0.0776
 2219SOL    HW2 8874   0.963   1.574   3.814  0.0573 -0.7743 -0.4277
 2219SOL    HW3 8875   0.904   1.622   3.684 -0.7611 -1.3002 -0.2532
 2219SOL    MW4 8876   0.896   1.604   3.768 -0.1210 -0.5750 -0.0327
 2220SOL     OW 8877   0.918   1.878   3.880  0.0183  0.4374 -0.0248
 2220SOL    HW2 8878   0.903   1.787   3.854 -0.6202 -0.0056  1.8132
 2220SOL    HW3 8879   0.835   1.923   3.859 -0.4348  0.1176  1.0392
 2220SOL    MW4 8880   0.905   1.872   3.874 -0.1257  0.3368  0.3581
 2221SOL     OW 8881   1.149   2.025   3.814  0.0029 -0.4656  0.4445
 2221SOL    HW2 8882   1.065   1.982   3.833 -0.7514  0.5306 -0.5601
 2221SOL    HW3 8883   1.152   2.030   3.718  1.4487 -0.9480  0.4572
 2221SOL    MW4 8884   1.138   2.020   3.804  0.0941 -0.3978  0.3136
 2222SOL     OW 8885   1.160   2.297   3.865 -0.1972 -0.0708 -1.2623
 2222SOL    HW2 8886   1.148   2.303   3.959  0.2781  0.8627 -1.2556
 2222SOL    HW3 8887   1.174   2.203   3.848 -0.1472 -0.2213 -0.3973
 2222SOL    MW4 8888   1.161   2.285   3.875 -0.1279  0.0325 -1.1473
 2223SOL     OW 8889   0.939   2.409   3.718  0.3643 -0.1082  0.3691
 2223SOL    HW2 8890   0.926   2.495   3.758  0.6167 -0.2203  0.6907
 2223SOL    HW3 8891   1.010   2.369   3.768 -0.2032 -0.7780  0.6665
 2223SOL    MW4 8892   0.946   2.415   3.730  0.3227 -0.2114  0.4508
 2224SOL     OW 8893   0.901   2.651   3.840  0.2757  0.0137 -0.0983
 2224SOL    HW2 8894   0.897   2.661   3.935  1.1597 -0.2933 -0.0192
 2224SOL    HW3 8895   0.983   2.695   3.815  0.4515 -0.5931 -0.6156
 2224SOL    MW4 8896   0.912   2.658   3.849  0.4155 -0.1069 -0.1561
 2225SOL     OW 8897   1.127   2.780   3.775  0.3402 -0.1471 -0.5164
 2225SOL    HW2 8898   1.216   2.744   3.782 -0.3790 -1.5066  2.6303
 2225SOL    HW3 8899   1.136   2.871   3.803  0.7788 -0.2368 -0.3523
 2225SOL    MW4 8900   1.140   2.787   3.780  0.3032 -0.3383 -0.0795
 2226SOL     OW 8901   1.102   3.078   3.811 -0.2754 -0.3221 -0.1138
 2226SOL    HW2 8902   1.181   3.129   3.789  0.4930 -2.2135 -1.8722
 2226SOL    HW3 8903   1.030   3.136   3.789  0.6024  0.6183 -0.5677
 2226SOL    MW4 8904   1.103   3.093   3.805 -0.0582 -0.4476 -0.4057
 2227SOL     OW 8905   0.886   3.244   3.770 -0.4897  0.1479  0.6595
 2227SOL    HW2 8906   0.822   3.183   3.807 -0.5284  0.4481  1.0899
 2227SOL    HW3 8907   0.877   3.233   3.675 -1.4541  0.4669  0.7056
 2227SOL    MW4 8908   0.876   3.235   3.762 -0.6220  0.2296  0.7224
 2228SOL     OW 8909   0.863   3.503   3.863  0.0089 -0.1496 -0.2405
 2228SOL    HW2 8910   0.864   3.418   3.820 -0.4915  0.3248 -1.2141
 2228SOL    HW3 8911   0.774   3.536   3.849  0.0559  0.3347  0.5331
 2228SOL    MW4 8912   0.851   3.496   3.855 -0.0509 -0.0231 -0.2669
 2229SOL     OW 8913   1.125   3.607   3.783 -0.2096  0.6261 -0.3709
 2229SOL    HW2 8914   1.139   3.695   3.818  0.1611 -0.0214  1.1264
 2229SOL    HW3 8915   1.034   3.587   3.804 -0.3743  0.7412 -0.9468
 2229SOL    MW4 8916   1.115   3.616   3.790 -0.1824  0.5559 -0.2493
 2230SOL     OW 8917   1.098   3.880   3.886  0.3987 -0.3179  0.4328
 2230SOL    HW2 8918   1.107   3.870   3.981 -0.2476  1.9438  0.7752
 2230SOL    HW3 8919   1.176   3.929   3.860 -1.2145  2.3411  0.4154
 2230SOL    MW4 8920   1.109   3.885   3.895  0.1006  0.3314  0.4757
 2231SOL     OW 8921   0.853   3.968   3.829  0.2766  0.2271  0.2269
 2231SOL    HW2 8922   0.933   3.938   3.872  0.6046 -1.6436 -1.5916
 2231SOL    HW3 8923   0.877   3.976   3.737 -1.2744  0.9504 -0.1273
 2231SOL    MW4 8924   0.867   3.965   3.822  0.1153  0.0757 -0.0598
 2232SOL     OW 8925   0.930   4.225   3.877  0.4507  0.2475  0.6313
 2232SOL    HW2 8926   0.935   4.240   3.971  0.3471 -0.2320  0.7149
 2232SOL    HW3 8927   0.904   4.133   3.869 -0.4283  0.5361  0.1460
 2232SOL    MW4 8928   0.927   4.215   3.888  0.3211  0.2223  0.5783
 2233SOL     OW 8929   1.092   4.412   3.798 -0.4977 -0.0057  0.0061
 2233SOL    HW2 8930   1.026   4.343   3.808 -1.4227  0.9191  0.4060
 2233SOL    HW3 8931   1.104   4.421   3.704 -1.2777  0.1140 -0.0883
 2233SOL    MW4 8932   1.085   4.404   3.787 -0.7227  0.1321  0.0464
 2234SOL     OW 8933   1.609   0.042   3.833  0.0405 -0.2787 -0.1809
 2234SOL    HW2 8934   1.613   0.055   3.928  2.3480 -0.6310 -0.1964
 2234SOL    HW3 8935   1.615  -0.053   3.822 -2.1697 -0.3954 -0.6316
 2234SOL    MW4 8936   1.610   0.031   3.844  0.0533 -0.3406 -0.2424
 2235SOL     OW 8937   1.355   0.114   3.765 -0.1318  0.3148 -0.3859
 2235SOL    HW2 8938   1.362   0.202   3.803 -0.0536 -0.4143  1.3160
 2235SOL    HW3 8939   1.440   0.074   3.783  0.2768  0.2952 -2.2459
 2235SOL    MW4 8940   1.367   0.120   3.772 -0.0676  0.2160 -0.4068
 2236SOL     OW 8941   1.357   0.368   3.870 -0.3855  0.0859 -0.2579
 2236SOL    HW2 8942   1.338   0.391   3.961  0.5768  1.0717 -0.3105
 2236SOL    HW3 8943   1.429   0.425   3.845 -1.1099  0.3061 -1.8654
 2236SOL    MW4 8944   1.364   0.378   3.879 -0.3541  0.2450 -0.4769
 2237SOL     OW 8945   1.579   0.520   3.821  0.8115 -0.3129  0.1802
 2237SOL    HW2 8946   1.658   0.478   3.856 -0.3562 -1.3236  1.6591
 2237SOL    HW3 8947   1.594   0.613   3.835  1.5452 -0.5278  0.8944
 2237SOL    MW4 8948   1.591   0.527   3.828  0.7542 -0.4746  0.4696
 2238SOL     OW 8949   1.537   0.794   3.864  0.5038 -0.4109  0.0351
 2238SOL    HW2 8950   1.617   0.823   3.822 -0.0438 -0.2351 -0.9037
 2238SOL    HW3 8951   1.466   0.831   3.811 -0.2117  0.2344  1.3920
 2238SOL    MW4 8952   1.538   0.802   3.851  0.3371 -0.3025  0.0902
 2239SOL     OW 8953   1.318   0.959   3.749 -0.6380  0.5530 -0.5088
 2239SOL    HW2 8954   1.344   1.029   3.809  1.0853 -0.1032 -0.4539
 2239SOL    HW3 8955   1.255   0.907   3.798 -0.5687  1.0302  0.0938
 2239SOL    MW4 8956   1.313   0.961   3.763 -0.4015  0.5294 -0.4220
 2240SOL     OW 8957   1.375   1.187   3.925 -0.6636  0.5826 -0.2050
 2240SOL    HW2 8958   1.441   1.210   3.860  0.1729  1.3190  0.8834
 2240SOL    HW3 8959   1.292   1.210   3.884 -0.2415 -0.2161 -1.5286
 2240SOL    MW4 8960   1.373   1.193   3.911 -0.4975  0.5744 -0.2361
 2241SOL     OW 8961   1.578   1.235   3.744 -0.1471 -0.4737  0.1222
 2241SOL    HW2 8962   1.661   1.198   3.773 -0.0377 -0.4564 -0.1690
 2241SOL    HW3 8963   1.579   1.325   3.778  0.6383  0.0301 -1.1872
 2241SOL    MW4 8964   1.589   1.242   3.752 -0.0291 -0.4049 -0.0890
 2242SOL     OW 8965   1.595   1.477   3.896 -0.2155 -0.0552 -0.6211
 2242SOL    HW2 8966   1.594   1.486   3.991 -1.2837  0.4705 -0.6767
 2242SOL    HW3 8967   1.671   1.528   3.867  0.3829 -0.6008 -0.0180
 2242SOL    MW4 8968   1.605   1.485   3.904 -0.2775 -0.0578 -0.5488
 2243SOL     OW 8969   1.368   1.604   3.839 -0.1140  0.3785 -0.1499
 2243SOL    HW2 8970   1.388   1.691   3.873 -0.0982  0.7701 -1.1252
 2243SOL    HW3 8971   1.451   1.557   3.844 -0.1781  0.3443  0.5967
 2243SOL    MW4 8972   1.382   1.610   3.844 -0.1203  0.4256 -0.1801
 2244SOL     OW 8973   1.397   1.890   3.883  0.3501 -0.2844 -0.3537
 2244SOL    HW2 8974   1.409   1.915   3.975  1.6115  2.0229 -1.0992
 2244SOL    HW3 8975   1.315   1.933   3.858  1.0014  0.7119 -0.8184
 2244SOL    MW4 8976   1.388   1.899   3.892  0.6025  0.1515 -0.5133
 2245SOL     OW 8977   1.608   2.017   3.784 -0.0067 -0.3532 -0.3733
 2245SOL    HW2 8978   1.530   1.965   3.804 -0.6902  0.5507 -0.6326
 2245SOL    HW3 8979   1.604   2.031   3.690  1.3584 -1.6877 -0.6393
 2245SOL    MW4 8980   1.597   2.012   3.775  0.0832 -0.4100 -0.4426
 2246SOL     OW 8981   1.565   2.267   3.888  0.1489  0.3503 -0.2661
 2246SOL    HW2 8982   1.641   2.314   3.854  0.8123 -1.3920 -1.3139
 2246SOL    HW3 8983   1.573   2.179   3.850 -1.9930 -0.0767  0.2029
 2246SOL    MW4 8984   1.576   2.261   3.878 -0.0462  0.0641 -0.3424
 2247SOL     OW 8985   1.373   2.422   3.759 -0.1725 -0.1905  0.0604
 2247SOL    HW2 8986   1.438   2.361   3.795 -0.0310 -0.1719 -0.1575
 2247SOL    HW3 8987   1.289   2.389   3.790 -0.0029  0.2033  0.9449
 2247SOL    MW4 8988   1.371   2.410   3.768 -0.1315 -0.1361  0.1483
 2248SOL     OW 8989   1.374   2.682   3.819  0.5393  0.3448 -0.1333
 2248SOL    HW2 8990   1.366   2.682   3.915 -0.1008 -0.2815 -0.1788
 2248SOL    HW3 8991   1.382   2.589   3.796 -0.8070  0.3777 -0.7921
 2248SOL    MW4 8992   1.374   2.669   3.829  0.2772  0.2665 -0.2262
 2249SOL     OW 8993   1.600   2.819   3.746  0.0621 -0.0931  0.0424
 2249SOL    HW2 8994   1.520   2.769   3.765  0.9401 -1.0628  1.2740
 2249SOL    HW3 8995   1.597   2.835   3.652 -0.9642 -1.2156 -0.1240
 2249SOL    MW4 8996   1.589   2.814   3.736  0.0425 -0.3691  0.1829
 2250SOL     OW 8997   1.603   3.087   3.844 -0.7494  0.3235 -0.7284
 2250SOL    HW2 8998   1.610   3.096   3.939  0.6836  0.3524 -0.8345
 2250SOL    HW3 8999   1.599   2.993   3.829 -2.0900  0.3412 -0.5768
 2250SOL    MW4 9000   1.603   3.076   3.855 -0.7372  0.3296 -0.7224
 2251SOL     OW 9001   1.357   3.197   3.759 -0.1073 -0.4365 -0.3255
 2251SOL    HW2 9002   1.383   3.287   3.774 -0.6460 -0.2767 -0.3431
 2251SOL    HW3 9003   1.413   3.145   3.818 -0.4086 -0.0253  0.3180
 2251SOL    MW4 9004   1.368   3.202   3.769 -0.2181 -0.3612 -0.2429
 2252SOL     OW 9005   1.348   3.457   3.835  0.0173  0.3570  0.1336
 2252SOL    HW2 9006   1.426   3.511   3.821 -0.0675  0.6646  0.7963
 2252SOL    HW3 9007   1.275   3.511   3.804 -0.1746  1.0541  1.7125
 2252SOL    MW4 9008   1.348   3.471   3.829 -0.0192  0.4896  0.4293
 2253SOL     OW 9009   1.568   3.636   3.787  0.1586 -0.2992 -0.3105
 2253SOL    HW2 9010   1.650   3.593   3.812  1.1181 -0.1785 -3.0986
 2253SOL    HW3 9011   1.569   3.719   3.835  2.9122  0.8371 -2.1623
 2253SOL    MW4 9012   1.579   3.641   3.797  0.6485 -0.1334 -0.9227
 2254SOL     OW 9013   1.532   3.879   3.929  0.1357 -0.1279 -0.0683
 2254SOL    HW2 9014   1.544   3.889   4.023 -0.2579  1.8383 -0.2148
 2254SOL    HW3 9015   1.452   3.928   3.909  0.0795 -0.7239 -1.3951
 2254SOL    MW4 9016   1.523   3.887   3.939  0.0763  0.0529 -0.2627
 2255SOL     OW 9017   1.326   4.043   3.798 -0.3005 -0.3117  0.3918
 2255SOL    HW2 9018   1.313   4.134   3.823 -1.6269 -0.9110  1.9528
 2255SOL    HW3 9019   1.334   4.046   3.703 -1.0717  1.3631  0.3532
 2255SOL    MW4 9020   1.325   4.055   3.789 -0.5773 -0.1698  0.5927
 2256SOL     OW 9021   1.326   4.317   3.915 -0.2957 -0.2587  0.0146
 2256SOL    HW2 9022   1.400   4.361   3.874 -0.7522  0.1875 -0.3338
 2256SOL    HW3 9023   1.250   4.365   3.884 -0.7087 -0.5279  0.6175
 2256SOL    MW4 9024   1.326   4.329   3.905 -0.4104 -0.2353  0.0482
 2257SOL     OW 9025   1.566   4.428   3.807 -0.3631 -0.2805  0.5501
 2257SOL    HW2 9026   1.629   4.365   3.841  0.8931  0.1061 -1.0178
 2257SOL    HW3 9027   1.566   4.414   3.712 -2.5409 -0.1865  0.5137
 2257SOL    MW4 9028   1.574   4.418   3.799 -0.4847 -0.2171  0.3384
 2258SOL     OW 9029   1.996   0.018   3.920 -0.4428  0.1312 -0.5894
 2258SOL    HW2 9030   2.086   0.051   3.918  0.2192 -1.6484 -0.6437
 2258SOL    HW3 9031   2.004  -0.076   3.903 -2.1823 -0.2994  0.7830
 2258SOL    MW4 9032   2.009   0.010   3.918 -0.5849 -0.1604 -0.4155
 2259SOL     OW 9033   1.833   0.183   3.739 -0.6852 -0.1093 -0.3029
 2259SOL    HW2 9034   1.881   0.109   3.775 -1.8737 -0.2167  1.0901
 2259SOL    HW3 9035   1.741   0.157   3.744 -1.0990  1.3602 -0.0180
 2259SOL    MW4 9036   1.827   0.170   3.744 -0.8966  0.0704 -0.0815
 2260SOL     OW 9037   1.813   0.405   3.904  0.0395 -0.1506 -0.1294
 2260SOL    HW2 9038   1.828   0.368   3.991 -1.7476  1.0416  0.7250
 2260SOL    HW3 9039   1.818   0.331   3.844  1.5992 -0.9398  0.9362
 2260SOL    MW4 9040   1.816   0.391   3.908  0.0095 -0.0974  0.1239
 2261SOL     OW 9041   2.062   0.498   3.776 -0.3465 -0.1271  0.0658
 2261SOL    HW2 9042   1.979   0.473   3.816 -0.2035 -0.7261 -0.0073
 2261SOL    HW3 9043   2.043   0.506   3.682 -0.3709 -0.0713  0.0757
 2261SOL    MW4 9044   2.049   0.496   3.769 -0.3308 -0.1988  0.0574
 2262SOL     OW 9045   2.018   0.728   3.904 -0.2176  0.3942 -0.4186
 2262SOL    HW2 9046   2.019   0.717   3.999  2.7132  0.6908 -0.3641
 2262SOL    HW3 9047   2.043   0.643   3.870  0.8486  0.8679 -0.8305
 2262SOL    MW4 9048   2.022   0.715   3.912  0.3098  0.4958 -0.4657
 2263SOL     OW 9049   1.793   0.869   3.793 -0.1973 -1.0549 -0.2281
 2263SOL    HW2 9050   1.868   0.816   3.819 -0.3168 -0.8047  0.6676
 2263SOL    HW3 9051   1.800   0.876   3.698  0.6028 -1.4962 -0.2085
 2263SOL    MW4 9052   1.804   0.863   3.784 -0.1075 -1.0801 -0.1073
 2264SOL     OW 9053   1.819   1.155   3.832 -0.4616 -0.1323  0.1104
 2264SOL    HW2 9054   1.804   1.164   3.926  1.1887  1.2101  0.2667
 2264SOL    HW3 9055   1.814   1.061   3.815 -0.6647 -0.3838  1.5521
 2264SOL    MW4 9056   1.816   1.144   3.842 -0.2707  0.0116  0.3212
 2265SOL     OW 9057   2.036   1.306   3.742  0.6917  0.0859 -0.8276
 2265SOL    HW2 9058   2.113   1.269   3.786  1.9132  1.6881 -1.5965
 2265SOL    HW3 9059   1.963   1.252   3.774  2.0850 -1.3306  0.0637
 2265SOL    MW4 9060   2.036   1.294   3.752  1.0367  0.1104 -0.8114
 2266SOL     OW 9061   2.060   1.567   3.842 -0.2973 -0.0339  0.0076
 2266SOL    HW2 9062   1.969   1.590   3.827 -0.2185 -0.3901 -1.0491
 2266SOL    HW3 9063   2.068   1.477   3.811  0.1312 -0.4330  1.2309
 2266SOL    MW4 9064   2.049   1.559   3.836 -0.2303 -0.1335  0.0296
 2267SOL     OW 9065   1.797   1.621   3.781  0.1528 -0.0206  0.3779
 2267SOL    HW2 9066   1.803   1.707   3.822 -2.3149 -0.2570  1.2912
 2267SOL    HW3 9067   1.813   1.639   3.688 -0.1024  1.4071  0.5885
 2267SOL    MW4 9068   1.800   1.635   3.774 -0.2064  0.1366  0.5262
 2268SOL     OW 9069   1.812   1.868   3.888 -0.2631 -0.8124  0.2016
 2268SOL    HW2 9070   1.797   1.869   3.982 -0.6052  0.6102  0.1444
 2268SOL    HW3 9071   1.740   1.920   3.852  0.2679 -0.7486 -0.7823
 2268SOL    MW4 9072   1.800   1.875   3.895 -0.2382 -0.6163  0.0643
 2269SOL     OW 9073   2.023   2.032   3.847  0.1528 -0.3966  0.4762
 2269SOL    HW2 9074   1.961   1.961   3.863 -0.8148  0.2236 -0.4827
 2269SOL    HW3 9075   2.033   2.035   3.752  2.1136 -0.8680  0.6374
 2269SOL    MW4 9076   2.016   2.023   3.837  0.2838 -0.3770  0.3709
 2270SOL     OW 9077   2.046   2.310   3.877  0.0037  0.1961  0.2852
 2270SOL    HW2 9078   1.955   2.326   3.852  0.0904  1.3516  0.6670
 2270SOL    HW3 9079   2.058   2.216   3.866 -1.4358 -0.0662  0.8967
 2270SOL    MW4 9080   2.036   2.300   3.872 -0.1748  0.3140  0.4163
 2271SOL     OW 9081   1.780   2.405   3.808 -0.1354  0.7568  0.3290
 2271SOL    HW2 9082   1.807   2.491   3.841  0.1230  0.9825 -0.4544
 2271SOL    HW3 9083   1.784   2.414   3.713  1.1437 -0.5200  0.2489
 2271SOL    MW4 9084   1.784   2.418   3.800  0.0675  0.6181  0.2151
 2272SOL     OW 9085   1.802   2.673   3.844 -0.3085 -0.0100  0.4630
 2272SOL    HW2 9086   1.791   2.668   3.939 -2.0557 -3.5202  0.1463
 2272SOL    HW3 9087   1.727   2.725   3.814  0.5086  1.5166  1.0120
 2272SOL    MW4 9088   1.791   2.679   3.853 -0.4312 -0.2717  0.4937
 2273SOL     OW 9089   2.006   2.840   3.758 -0.3400  0.1360 -0.0497
 2273SOL    HW2 9090   2.071   2.789   3.806  0.8407  1.2648 -0.4198
 2273SOL    HW3 9091   1.924   2.792   3.770  0.7277 -1.8111 -0.3508
 2273SOL    MW4 9092   2.003   2.827   3.766 -0.0434  0.0281 -0.1382
 2274SOL     OW 9093   2.011   3.082   3.874 -0.0317  0.1467  0.6683
 2274SOL    HW2 9094   2.094   3.123   3.850 -1.3524  3.0792  0.9588
 2274SOL    HW3 9095   2.012   2.998   3.828  1.6648  1.5323 -1.9348
 2274SOL    MW4 9096   2.022   3.076   3.865  0.0178  0.7165  0.3632
 2275SOL     OW 9097   1.816   3.234   3.749 -0.0951  0.4369  0.1082
 2275SOL    HW2 9098   1.887   3.188   3.794 -0.4829 -0.2556  0.0266
 2275SOL    HW3 9099   1.740   3.178   3.762 -0.0204 -0.2588 -2.1812
 2275SOL    MW4 9100   1.816   3.221   3.756 -0.1364  0.2537 -0.2046
 2276SOL     OW 9101   1.766   3.480   3.879 -0.0907 -0.1443  0.6095
 2276SOL    HW2 9102   1.845   3.523   3.849  0.8963 -2.0109  0.4490
 2276SOL    HW3 9103   1.779   3.387   3.857 -2.1180 -0.5529  0.9773
 2276SOL    MW4 9104   1.778   3.473   3.872 -0.2279 -0.4445  0.6368
 2277SOL     OW 9105   1.999   3.597   3.818 -0.4882 -0.3258  0.1822
 2277SOL    HW2 9106   2.089   3.574   3.841 -0.2971  0.2342 -0.0030
 2277SOL    HW3 9107   2.000   3.608   3.723 -1.0047 -1.4203  0.0410
 2277SOL    MW4 9108   2.011   3.595   3.809 -0.5311 -0.3963  0.1392
 2278SOL     OW 9109   2.009   3.875   3.877  0.4145  0.4273  0.3758
 2278SOL    HW2 9110   2.088   3.920   3.848  0.6544  0.1850  0.6579
 2278SOL    HW3 9111   2.025   3.782   3.860  0.3864  0.3249  0.8828
 2278SOL    MW4 9112   2.021   3.868   3.871  0.4425  0.3818  0.4799
 2279SOL     OW 9113   1.773   4.001   3.827 -0.0739  0.0423  0.2037
 2279SOL    HW2 9114   1.852   3.954   3.851 -0.6401 -0.2076  1.6174
 2279SOL    HW3 9115   1.701   3.945   3.857 -0.7711  0.8571  0.0781
 2279SOL    MW4 9116   1.774   3.988   3.834 -0.2406  0.1168  0.3737
 2280SOL     OW 9117   1.792   4.296   3.901  0.5473 -0.1122  0.5897
 2280SOL    HW2 9118   1.877   4.329   3.872  0.6433  0.5468  1.5816
 2280SOL    HW3 9119   1.786   4.207   3.865  0.6958  0.6324 -1.3200
 2280SOL    MW4 9120   1.802   4.289   3.893  0.5795  0.0730  0.4686
 2281SOL     OW 9121   2.026   4.421   3.824 -0.5334  0.1663  0.5994
 2281SOL    HW2 9122   2.096   4.359   3.841 -0.4847 -0.0560 -0.3415
 2281SOL    HW3 9123   2.032   4.438   3.730 -1.1437  0.8674  0.6822
 2281SOL    MW4 9124   2.036   4.415   3.814 -0.6075  0.2294  0.4862
 2282SOL     OW 9125   2.458   4.611   3.953  0.9657 -0.1139  0.1448
 2282SOL    HW2 9126   2.452   4.569   4.038 -1.9257  0.4057  0.2420
 2282SOL    HW3 9127   2.538   4.664   3.958  0.1348  0.9417  3.0192
 2282SOL    MW4 9128   2.468   4.613   3.965  0.4746  0.0939  0.5369
 2283SOL     OW 9129   2.272   0.109   3.835 -0.0303  0.0296  0.1710
 2283SOL    HW2 9130   2.331   0.059   3.891  0.7555  0.3290 -0.3789
 2283SOL    HW3 9131   2.287   0.074   3.747 -1.8774 -1.0297  0.2566
 2283SOL    MW4 9132   2.282   0.098   3.830 -0.1703 -0.0707  0.1098
 2284SOL     OW 9133   2.291   0.384   3.894 -0.1850  0.5994  0.0591
 2284SOL    HW2 9134   2.297   0.291   3.873  0.2205  0.2585  1.5828
 2284SOL    HW3 9135   2.211   0.414   3.852 -0.2604 -0.4220 -0.5308
 2284SOL    MW4 9136   2.282   0.376   3.886 -0.1414  0.4196  0.1823
 2285SOL     OW 9137   2.496   0.510   3.752 -0.2893 -0.6359 -0.8399
 2285SOL    HW2 9138   2.421   0.470   3.795 -0.4052 -0.9008 -1.2874
 2285SOL    HW3 9139   2.484   0.490   3.659  0.0991 -0.2969 -0.9649
 2285SOL    MW4 9140   2.484   0.502   3.746 -0.2533 -0.6261 -0.9154
 2286SOL     OW 9141   2.493   0.794   3.792  0.3551 -0.1514  0.0063
 2286SOL    HW2 9142   2.408   0.818   3.756 -0.3295 -0.3184  1.4849
 2286SOL    HW3 9143   2.493   0.698   3.793 -0.6386 -0.1603  2.7300
 2286SOL    MW4 9144   2.482   0.785   3.788  0.1336 -0.1746  0.5608
 2287SOL     OW 9145   2.215   0.892   3.794 -0.2082 -0.6436 -0.0240
 2287SOL    HW2 9146   2.158   0.833   3.844 -1.3747 -0.1240 -0.7241
 2287SOL    HW3 9147   2.182   0.887   3.704  0.1838  0.4683 -0.2366
 2287SOL    MW4 9148   2.203   0.884   3.789 -0.3104 -0.4283 -0.1444
 2288SOL     OW 9149   2.228   1.162   3.873  0.0627  0.4190 -0.4072
 2288SOL    HW2 9150   2.230   1.167   3.968 -3.1810 -0.1544 -0.2683
 2288SOL    HW3 9151   2.211   1.070   3.854 -1.5901  0.9355 -1.4795
 2288SOL    MW4 9152   2.226   1.151   3.883 -0.5833  0.4115 -0.5304
 2289SOL     OW 9153   2.460   1.255   3.747  0.1601  0.1191  0.0626
 2289SOL    HW2 9154   2.459   1.349   3.766  0.6511  0.8938 -3.3138
 2289SOL    HW3 9155   2.379   1.222   3.786 -0.9506  2.3004 -0.2645
 2289SOL    MW4 9156   2.449   1.263   3.754  0.0783  0.5091 -0.4260
 2290SOL     OW 9157   2.479   1.524   3.820  0.3798 -0.2666  0.0293
 2290SOL    HW2 9158   2.554   1.582   3.807  0.4308 -0.1329  0.9190
 2290SOL    HW3 9159   2.403   1.580   3.806  0.4209  0.2179  1.7296
 2290SOL    MW4 9160   2.479   1.539   3.816  0.3919 -0.1851  0.3710
 2291SOL     OW 9161   2.296   1.712   3.768  0.6874 -0.1985 -0.0853
 2291SOL    HW2 9162   2.318   1.769   3.842  0.4761 -1.4136  0.9400
 2291SOL    HW3 9163   2.214   1.670   3.794  0.9113 -1.0687 -0.7614
 2291SOL    MW4 9164   2.288   1.714   3.781  0.6891 -0.4736 -0.0392
 2292SOL     OW 9165   2.272   1.941   3.950  0.0419 -0.3993  0.0207
 2292SOL    HW2 9166   2.289   1.968   4.040 -1.7473 -1.4731  0.6765
 2292SOL    HW3 9167   2.183   1.971   3.931 -0.3683 -1.9970 -0.6894
 2292SOL    MW4 9168   2.263   1.949   3.959 -0.2483 -0.7518  0.0135
 2293SOL     OW 9169   2.482   2.056   3.782  0.1293 -0.2152  0.1824
 2293SOL    HW2 9170   2.481   2.148   3.811 -1.0159 -0.6298  1.5332
 2293SOL    HW3 9171   2.401   2.019   3.817  0.1310 -1.5184 -1.1419
 2293SOL    MW4 9172   2.471   2.063   3.791 -0.0216 -0.4418  0.1859
 2294SOL     OW 9173   2.475   2.324   3.918  0.2992  0.5679  0.3415
 2294SOL    HW2 9174   2.551   2.356   3.869  0.4418 -0.5755 -0.1962
 2294SOL    HW3 9175   2.404   2.381   3.890  1.0466  1.9716  1.2217
 2294SOL    MW4 9176   2.476   2.336   3.908  0.4166  0.6023  0.3867
 2295SOL     OW 9177   2.273   2.465   3.829 -0.0872  0.2479  0.3711
 2295SOL    HW2 9178   2.189   2.430   3.857 -1.3194  2.6582 -0.1463
 2295SOL    HW3 9179   2.288   2.427   3.743 -2.2912  2.3277 -0.9926
 2295SOL    MW4 9180   2.264   2.456   3.822 -0.5406  0.8403  0.1229
 2296SOL     OW 9181   2.207   2.731   3.907 -0.6250  0.2724  0.2622
 2296SOL    HW2 9182   2.202   2.732   4.002  0.6123  1.5688  0.3171
 2296SOL    HW3 9183   2.242   2.645   3.885 -0.7038  0.0567  0.9893
 2296SOL    MW4 9184   2.211   2.720   3.917 -0.4722  0.4150  0.3654
 2297SOL     OW 9185   2.435   2.845   3.796 -0.1599  0.7467 -0.2743
 2297SOL    HW2 9186   2.352   2.809   3.825 -0.5816  1.2701 -0.8312
 2297SOL    HW3 9187   2.437   2.829   3.702  1.1040 -0.7311 -0.0260
 2297SOL    MW4 9188   2.425   2.838   3.788 -0.0488  0.6208 -0.3150
 2298SOL     OW 9189   2.490   3.108   3.889  0.0516  0.2414  0.1757
 2298SOL    HW2 9190   2.484   3.109   3.985 -0.6157  0.2636  0.1376
 2298SOL    HW3 9191   2.462   3.020   3.865  0.7003  0.0742  0.0286
 2298SOL    MW4 9192   2.486   3.097   3.899  0.0491  0.2223  0.1513
 2299SOL     OW 9193   2.244   3.234   3.814 -0.4609 -0.0840  0.1753
 2299SOL    HW2 9194   2.236   3.319   3.856 -1.2333 -0.8388  1.5520
 2299SOL    HW3 9195   2.327   3.198   3.847  0.1717  0.3844 -0.8761
 2299SOL    MW4 9196   2.254   3.240   3.824 -0.4793 -0.1218  0.2182
 2300SOL     OW 9197   2.223   3.498   3.920  0.2507 -0.3999  0.2131
 2300SOL    HW2 9198   2.225   3.503   4.015 -1.4238  0.9141  0.2067
 2300SOL    HW3 9199   2.301   3.544   3.891 -0.6615  1.6019  0.8984
 2300SOL    MW4 9200   2.233   3.504   3.929 -0.0905  0.0376  0.3027
 2301SOL     OW 9201   2.460   3.624   3.821  0.4585 -0.0114  0.1377
 2301SOL    HW2 9202   2.542   3.577   3.837 -0.1709 -1.2273 -0.0700
 2301SOL    HW3 9203   2.453   3.628   3.726 -0.0739 -0.5832  0.1437
 2301SOL    MW4 9204   2.470   3.618   3.811  0.3052 -0.2473  0.1111
 2302SOL     OW 9205   2.467   3.898   3.892  0.5494  0.3122  0.6815
 2302SOL    HW2 9206   2.533   3.936   3.834  0.3788  0.7114  0.7479
 2302SOL    HW3 9207   2.465   3.805   3.867  0.2274  0.5446 -0.1926
 2302SOL    MW4 9208   2.475   3.891   3.881  0.4844  0.3956  0.5749
 2303SOL     OW 9209   2.240   3.989   3.758  0.3669  0.6717 -0.0046
 2303SOL    HW2 9210   2.312   3.947   3.806  1.3159  0.3504 -1.6534
 2303SOL    HW3 9211   2.267   3.983   3.666 -2.1318 -0.0904 -0.7049
 2303SOL    MW4 9212   2.253   3.983   3.752  0.1624  0.5287 -0.3145
 2304SOL     OW 9213   2.255   4.247   3.873  0.4273  0.1393  0.3537
 2304SOL    HW2 9214   2.237   4.238   3.966  0.1982 -1.4330  0.1734
 2304SOL    HW3 9215   2.246   4.158   3.838 -0.6751  0.9002 -1.3813
 2304SOL    MW4 9216   2.252   4.234   3.881  0.2516  0.0323  0.1010
 2305SOL     OW 9217   2.490   4.382   3.790  0.2586 -0.1311 -0.1767
 2305SOL    HW2 9218   2.415   4.330   3.818  0.7046 -1.1292 -0.7805
 2305SOL    HW3 9219   2.480   4.466   3.834 -0.7002 -0.5925  0.4890
 2305SOL    MW4 9220   2.479   4.386   3.800  0.1910 -0.3237 -0.1685
 2306SOL     OW 9221   2.903   4.608   3.881  0.0931 -0.3778 -0.0061
 2306SOL    HW2 9222   2.884   4.618   3.975  1.4394 -0.5596  0.3019
 2306SOL    HW3 9223   2.969   4.675   3.863 -0.8897  0.3230 -1.0644
 2306SOL    MW4 9224   2.909   4.618   3.891  0.1411 -0.3093 -0.1051
 2307SOL     OW 9225   2.689   0.096   3.837 -0.0631 -0.4125 -0.2099
 2307SOL    HW2 9226   2.763   0.038   3.854  0.1716 -0.1199 -0.2418
 2307SOL    HW3 9227   2.696   0.118   3.745  0.6899  0.8423  0.1333
 2307SOL    MW4 9228   2.699   0.091   3.827  0.0672 -0.2084 -0.1689
 2308SOL     OW 9229   2.701   0.380   3.874  0.0272 -0.3092 -0.3973
 2308SOL    HW2 9230   2.695   0.290   3.843 -0.9613 -0.2972 -0.2540
 2308SOL    HW3 9231   2.625   0.425   3.835  0.6143  0.5031 -0.6211
 2308SOL    MW4 9232   2.690   0.374   3.865 -0.0257 -0.2004 -0.4079
 2309SOL     OW 9233   2.925   0.538   3.793  0.0484  0.1591 -0.1752
 2309SOL    HW2 9234   2.987   0.472   3.824  0.3669  0.6224  0.1677
 2309SOL    HW3 9235   2.839   0.497   3.803  0.2767 -0.3813 -0.4030
 2309SOL    MW4 9236   2.922   0.524   3.798  0.1205  0.1489 -0.1600
 2310SOL     OW 9237   2.948   0.802   3.868 -0.4608  0.0406 -0.4085
 2310SOL    HW2 9238   3.012   0.835   3.805  1.0784  0.3165  1.2596
 2310SOL    HW3 9239   2.945   0.708   3.851 -0.9998  0.2849 -1.7250
 2310SOL    MW4 9240   2.956   0.794   3.858 -0.3288  0.1092 -0.3621
 2311SOL     OW 9241   2.733   0.963   3.805 -0.1296  0.5700  0.0591
 2311SOL    HW2 9242   2.808   0.913   3.837  0.6328  0.0151 -2.4423
 2311SOL    HW3 9243   2.661   0.899   3.803  0.0146  0.4114 -0.0584
 2311SOL    MW4 9244   2.733   0.948   3.809 -0.0100  0.4758 -0.2864
 2312SOL     OW 9245   2.679   1.219   3.893 -0.1912  0.1481  0.0311
 2312SOL    HW2 9246   2.675   1.124   3.894 -0.2987  0.1508  0.9153
 2312SOL    HW3 9247   2.605   1.247   3.839 -0.2088 -0.2679 -0.1569
 2312SOL    MW4 9248   2.669   1.210   3.886 -0.2077  0.0935  0.1230
 2313SOL     OW 9249   2.906   1.260   3.758  0.1696  0.0997 -0.4295
 2313SOL    HW2 9250   2.924   1.345   3.800  0.2993 -0.0706 -0.1419
 2313SOL    HW3 9251   2.828   1.227   3.802  0.8652 -0.5245  0.3371
 2313SOL    MW4 9252   2.898   1.267   3.769  0.2785 -0.0051 -0.2904
 2314SOL     OW 9253   2.922   1.528   3.902 -0.6537  0.0921  0.1895
 2314SOL    HW2 9254   2.927   1.532   3.998 -0.1830 -0.3537  0.1804
 2314SOL    HW3 9255   2.986   1.592   3.872 -0.7890  0.2194  0.1685
 2314SOL    MW4 9256   2.931   1.537   3.911 -0.6094  0.0501  0.1855
 2315SOL     OW 9257   2.710   1.661   3.772  0.3908 -0.4943 -0.0026
 2315SOL    HW2 9258   2.781   1.612   3.814  1.1149  1.0007  0.5878
 2315SOL    HW3 9259   2.723   1.647   3.678  1.3462 -0.4258  0.1099
 2315SOL    MW4 9260   2.721   1.653   3.765  0.6124 -0.2880  0.0901
 2316SOL     OW 9261   2.717   1.900   3.893  0.2001  0.2707 -0.8564
 2316SOL    HW2 9262   2.716   1.812   3.856 -1.1032  0.3579 -1.0655
 2316SOL    HW3 9263   2.640   1.943   3.855  0.5937  1.3712 -0.4451
 2316SOL    MW4 9264   2.707   1.894   3.883  0.0801  0.4274 -0.8297
 2317SOL     OW 9265   2.911   2.056   3.798  0.0860  0.6224  0.0845
 2317SOL    HW2 9266   2.902   2.135   3.850  1.1285  0.3818  0.6345
 2317SOL    HW3 9267   2.843   1.997   3.832 -1.2772  1.5848 -0.9186
 2317SOL    MW4 9268   2.901   2.058   3.809  0.0437  0.7176  0.0247
 2318SOL     OW 9269   2.926   2.336   3.910  0.0562 -0.1110  0.7395
 2318SOL    HW2 9270   2.943   2.348   4.003 -0.0523  0.6135  0.6747
 2318SOL    HW3 9271   3.002   2.374   3.866  0.3614 -0.9506  0.5462
 2318SOL    MW4 9272   2.938   2.343   3.917  0.0821 -0.1262  0.7054
 2319SOL     OW 9273   2.709   2.421   3.767  0.3424  0.4073 -0.0400
 2319SOL    HW2 9274   2.696   2.513   3.790  0.9447  0.1651  1.3554
 2319SOL    HW3 9275   2.768   2.388   3.835 -1.9753 -1.6947  1.0431
 2319SOL    MW4 9276   2.715   2.429   3.779  0.1161  0.0980  0.2870
 2320SOL     OW 9277   2.657   2.691   3.894  0.0404 -0.4777 -0.2311
 2320SOL    HW2 9278   2.684   2.709   3.984 -0.3692 -0.6942 -0.0628
 2320SOL    HW3 9279   2.583   2.749   3.879 -1.5840 -2.3045  0.4758
 2320SOL    MW4 9280   2.651   2.701   3.904 -0.2279 -0.7473 -0.1156
 2321SOL     OW 9281   2.867   2.832   3.792 -0.4130  0.0408 -0.3156
 2321SOL    HW2 9282   2.874   2.919   3.830 -0.1242 -0.4858  0.8505
 2321SOL    HW3 9283   2.798   2.789   3.842  0.2294 -0.7834 -0.1268
 2321SOL    MW4 9284   2.859   2.837   3.804 -0.2902 -0.1374 -0.1368
 2322SOL     OW 9285   2.923   3.118   3.829 -0.1473 -0.0436  0.4527
 2322SOL    HW2 9286   3.003   3.165   3.804 -0.7725  1.1509  0.6149
 2322SOL    HW3 9287   2.852   3.168   3.787 -0.7897 -1.1760  0.1875
 2322SOL    MW4 9288   2.924   3.131   3.820 -0.3145 -0.0354  0.4391
 2323SOL     OW 9289   2.697   3.254   3.728 -0.3865  0.0755  0.0706
 2323SOL    HW2 9290   2.704   3.342   3.764 -1.3932  0.1608  0.0811
 2323SOL    HW3 9291   2.610   3.224   3.756 -0.5492 -0.4437 -0.9760
 2323SOL    MW4 9292   2.686   3.261   3.737 -0.5408  0.0183 -0.0661
 2324SOL     OW 9293   2.705   3.506   3.888  0.0981  0.3439  0.3065
 2324SOL    HW2 9294   2.710   3.516   3.983 -0.2008 -0.3516  0.4017
 2324SOL    HW3 9295   2.755   3.579   3.853  0.2688  0.5617  1.0034
 2324SOL    MW4 9296   2.712   3.517   3.896  0.0812  0.2809  0.4110
 2325SOL     OW 9297   2.924   3.625   3.763 -0.2579 -0.8186 -0.1989
 2325SOL    HW2 9298   3.000   3.586   3.806  0.3366 -1.0432 -1.4343
 2325SOL    HW3 9299   2.948   3.629   3.670 -1.6734 -0.7190 -0.5757
 2325SOL    MW4 9300   2.937   3.620   3.756 -0.3662 -0.8351 -0.4116
 2326SOL     OW 9301   2.935   3.899   3.853 -0.2881 -0.1193 -0.0278
 2326SOL    HW2 9302   2.932   3.910   3.948 -2.2914 -1.1554  0.0688
 2326SOL    HW3 9303   2.929   3.804   3.839 -0.4701  0.0464 -1.1840
 2326SOL    MW4 9304   2.934   3.887   3.863 -0.5765 -0.2342 -0.1676
 2327SOL     OW 9305   2.688   4.025   3.743 -0.3571 -0.1152 -0.1856
 2327SOL    HW2 9306   2.701   4.109   3.786 -0.6166 -0.8095  1.2928
 2327SOL    HW3 9307   2.770   3.978   3.757 -0.8555 -0.7805  0.5720
 2327SOL    MW4 9308   2.701   4.030   3.751 -0.4571 -0.2946  0.1094
 2328SOL     OW 9309   2.722   4.270   3.864  0.2333 -0.1355 -0.1721
 2328SOL    HW2 9310   2.801   4.305   3.823  0.3521  0.5976  0.6662
 2328SOL    HW3 9311   2.651   4.325   3.831  0.3588  0.6018  0.7775
 2328SOL    MW4 9312   2.723   4.282   3.855  0.2655  0.0585  0.0638
 2329SOL     OW 9313   2.934   4.376   3.715  0.1714 -0.5545  0.4854
 2329SOL    HW2 9314   3.007   4.341   3.766 -0.6018 -0.8663  1.4160
 2329SOL    HW3 9315   2.907   4.455   3.764  0.1627 -0.2041 -0.0855
 2329SOL    MW4 9316   2.940   4.382   3.728  0.0682 -0.5494  0.5329
 2330SOL     OW 9317   3.339   4.652   3.872  0.0284  0.1132  0.3581
 2330SOL    HW2 9318   3.358   4.662   3.965  0.0264 -0.1643  0.3895
 2330SOL    HW3 9319   3.411   4.696   3.828  1.1619 -1.5727  0.4637
 2330SOL    MW4 9320   3.351   4.659   3.878  0.1777 -0.1458  0.3761
 2331SOL     OW 9321   3.108   0.099   3.773  0.8099  0.1313  0.2780
 2331SOL    HW2 9322   3.191   0.059   3.799  2.0054  1.3003 -1.5404
 2331SOL    HW3 9323   3.117   0.111   3.678 -2.0287 -1.0258 -0.1886
 2331SOL    MW4 9324   3.120   0.095   3.764  0.5931  0.1329 -0.0235
 2332SOL     OW 9325   3.134   0.364   3.819 -0.0513 -0.2176 -0.0040
 2332SOL    HW2 9326   3.131   0.358   3.915  0.8755 -0.1528  0.0356
 2332SOL    HW3 9327   3.127   0.274   3.789 -0.8542 -0.1955  0.1052
 2332SOL    MW4 9328   3.133   0.351   3.828 -0.0349 -0.2061  0.0157
 2333SOL     OW 9329   3.366   0.497   3.708  0.7398  0.0462  0.0180
 2333SOL    HW2 9330   3.429   0.443   3.754  0.0076 -1.7756 -1.0781
 2333SOL    HW3 9331   3.282   0.454   3.722  0.2996  0.2681 -1.7962
 2333SOL    MW4 9332   3.363   0.485   3.716  0.5851 -0.1649 -0.3660
 2334SOL     OW 9333   3.402   0.791   3.794 -0.1361 -0.4459  0.3684
 2334SOL    HW2 9334   3.386   0.788   3.888  1.5198  0.1188  0.6862
 2334SOL    HW3 9335   3.392   0.700   3.765  0.0769 -0.7439  1.2176
 2334SOL    MW4 9336   3.399   0.779   3.802  0.1105 -0.4107  0.5224
 2335SOL     OW 9337   3.166   0.894   3.712  0.0591 -0.3407  0.0448
 2335SOL    HW2 9338   3.245   0.841   3.727  1.2359  1.6363  0.9610
 2335SOL    HW3 9339   3.164   0.906   3.617  1.7319  0.8731  0.1466
 2335SOL    MW4 9340   3.176   0.888   3.701  0.4351  0.0803  0.1791
 2336SOL     OW 9341   3.128   1.137   3.867  0.1555 -0.2056  0.4448
 2336SOL    HW2 9342   3.147   1.056   3.821  1.6643  0.7073 -0.5919
 2336SOL    HW3 9343   3.045   1.167   3.830  0.4227 -0.4428 -0.3475
 2336SOL    MW4 9344   3.119   1.131   3.856  0.3898 -0.1165  0.2035
 2337SOL     OW 9345   3.313   1.300   3.756 -0.0156 -0.0620 -0.3725
 2337SOL    HW2 9346   3.237   1.247   3.782  0.8350 -1.1015  0.0211
 2337SOL    HW3 9347   3.314   1.295   3.660  1.2521 -2.4591 -0.2514
 2337SOL    MW4 9348   3.303   1.292   3.747  0.2639 -0.5154 -0.3046
 2338SOL     OW 9349   3.355   1.555   3.886 -0.0419 -0.2383 -0.2302
 2338SOL    HW2 9350   3.280   1.599   3.845 -0.7899 -0.2543  1.0844
 2338SOL    HW3 9351   3.340   1.462   3.871 -1.2892 -0.3597  1.6705
 2338SOL    MW4 9352   3.343   1.549   3.878 -0.3051 -0.2564  0.1940
 2339SOL     OW 9353   3.115   1.691   3.786 -0.0288 -0.2870 -0.1495
 2339SOL    HW2 9354   3.131   1.782   3.813  1.0119 -0.6670  0.5304
 2339SOL    HW3 9355   3.114   1.695   3.690  0.5261  0.3647 -0.1350
 2339SOL    MW4 9356   3.117   1.704   3.777  0.1817 -0.2512 -0.0579
 2340SOL     OW 9357   3.170   1.951   3.859  0.2364  0.0866 -0.4661
 2340SOL    HW2 9358   3.164   1.929   3.952  0.3550 -2.5481 -1.0380
 2340SOL    HW3 9359   3.085   1.991   3.838  0.9623  2.6073  1.1927
 2340SOL    MW4 9360   3.158   1.953   3.868  0.3478  0.0715 -0.3227
 2341SOL     OW 9361   3.422   2.009   3.773 -0.1936 -0.1099 -0.0138
 2341SOL    HW2 9362   3.334   1.993   3.808 -0.5225 -0.5058 -1.0046
 2341SOL    HW3 9363   3.408   2.036   3.682  0.8034 -2.2265 -0.8246
 2341SOL    MW4 9364   3.409   2.010   3.766 -0.1055 -0.4414 -0.2515
 2342SOL     OW 9365   3.299   2.260   3.928  0.0125  0.3289 -0.1155
 2342SOL    HW2 9366   3.238   2.308   3.872 -0.0843  0.3966  0.0510
 2342SOL    HW3 9367   3.305   2.173   3.886  0.3163  0.5363 -0.5066
 2342SOL    MW4 9368   3.292   2.255   3.915  0.0398  0.3652 -0.1452
 2343SOL     OW 9369   3.151   2.472   3.782 -0.1826  0.1919 -0.0874
 2343SOL    HW2 9370   3.135   2.562   3.810  0.8080  1.0202 -2.0761
 2343SOL    HW3 9371   3.170   2.479   3.689 -0.2775 -2.1110 -0.3108
 2343SOL    MW4 9372   3.152   2.485   3.774 -0.0644 -0.0027 -0.3793
 2344SOL     OW 9373   3.114   2.724   3.853 -0.0792 -0.3066 -0.5518
 2344SOL    HW2 9374   3.101   2.711   3.947 -0.6525  0.4009 -0.5296
 2344SOL    HW3 9375   3.028   2.747   3.820  0.1518 -0.4103 -1.2315
 2344SOL    MW4 9376   3.101   2.725   3.861 -0.1244 -0.2269 -0.6386
 2345SOL     OW 9377   3.379   2.785   3.768  0.3023 -0.1200  0.2370
 2345SOL    HW2 9378   3.297   2.770   3.814 -0.0451  2.2107  0.4704
 2345SOL    HW3 9379   3.354   2.800   3.677  0.6728 -1.4439 -0.0874
 2345SOL    MW4 9380   3.365   2.785   3.762  0.3053  0.0128  0.2250
 2346SOL     OW 9381   3.370   3.105   3.852  0.5344  0.4438 -0.4918
 2346SOL    HW2 9382   3.448   3.144   3.813  1.5840  0.5029  1.5978
 2346SOL    HW3 9383   3.372   3.014   3.823  0.7331  0.7286 -1.3989
 2346SOL    MW4 9384   3.381   3.098   3.843  0.6991  0.4892 -0.3358
 2347SOL     OW 9385   3.153   3.248   3.746  0.6908  0.1686 -0.1713
 2347SOL    HW2 9386   3.230   3.199   3.774  1.1899  0.9093 -0.2385
 2347SOL    HW3 9387   3.154   3.242   3.650 -1.0088 -2.3530 -0.0884
 2347SOL    MW4 9388   3.163   3.241   3.737  0.5324 -0.0664 -0.1693
 2348SOL     OW 9389   3.139   3.482   3.885  0.0575  0.3150 -0.2250
 2348SOL    HW2 9390   3.224   3.522   3.866  0.5248  0.2164  1.5545
 2348SOL    HW3 9391   3.139   3.400   3.836  1.1604  0.1196  0.0891
 2348SOL    MW4 9392   3.150   3.477   3.876  0.2647  0.2762  0.0512
 2349SOL     OW 9393   3.390   3.600   3.772  0.0783 -0.3793 -0.1803
 2349SOL    HW2 9394   3.387   3.690   3.806  0.9072 -0.6200  0.5324
 2349SOL    HW3 9395   3.388   3.611   3.677  0.6605  0.4192 -0.1088
 2349SOL    MW4 9396   3.389   3.613   3.764  0.2645 -0.3057 -0.0768
 2350SOL     OW 9397   3.405   3.905   3.821 -0.3059  0.3474  0.0846
 2350SOL    HW2 9398   3.483   3.943   3.779 -0.1265 -1.3561 -1.1675
 2350SOL    HW3 9399   3.332   3.954   3.784 -0.0892 -0.5847 -1.6436
 2350SOL    MW4 9400   3.406   3.916   3.810 -0.2536 -0.0003 -0.3086
 2351SOL     OW 9401   3.163   4.020   3.730  0.4203  0.1779 -0.6214
 2351SOL    HW2 9402   3.174   4.094   3.789  0.5801  0.5330 -1.0948
 2351SOL    HW3 9403   3.088   3.972   3.765  2.0199 -1.0072  1.3344
 2351SOL    MW4 9404   3.155   4.023   3.742  0.6524  0.0684 -0.4258
 2352SOL     OW 9405   3.124   4.256   3.865 -0.0037  0.0811  0.3182
 2352SOL    HW2 9406   3.122   4.278   3.958  0.5479  1.9882 -0.1092
 2352SOL    HW3 9407   3.197   4.306   3.830  0.0694 -0.9695 -1.0695
 2352SOL    MW4 9408   3.133   4.266   3.872  0.0788  0.1941  0.0787
 2353SOL     OW 9409   3.331   4.387   3.756 -0.1874  0.6803  0.4936
 2353SOL    HW2 9410   3.414   4.360   3.795 -0.3941  0.9268  1.1106
 2353SOL    HW3 9411   3.325   4.481   3.776 -0.0419  0.9243 -0.5863
 2353SOL    MW4 9412   3.341   4.396   3.764 -0.1954  0.7450  0.4325
 2354SOL     OW 9413   3.786   4.617   3.842  0.0893 -0.4244 -0.0474
 2354SOL    HW2 9414   3.873   4.654   3.827  0.0166 -1.0375 -2.1847
 2354SOL    HW3 9415   3.794   4.525   3.816 -1.4861 -0.1913 -1.4958
 2354SOL    MW4 9416   3.798   4.610   3.836 -0.1281 -0.4745 -0.5205
 2355SOL     OW 9417   3.568   0.104   3.766 -0.4253 -0.2169 -0.3450
 2355SOL    HW2 9418   3.631   0.038   3.794 -0.9742 -0.0973  1.2505
 2355SOL    HW3 9419   3.571   0.102   3.670 -0.7565 -2.8422 -0.3313
 2355SOL    MW4 9420   3.577   0.095   3.757 -0.5414 -0.5475 -0.1327
 2356SOL     OW 9421   3.574   0.371   3.840 -0.4630 -0.1967 -0.3719
 2356SOL    HW2 9422   3.653   0.408   3.799 -1.1326 -0.8586 -2.3354
 2356SOL    HW3 9423   3.576   0.279   3.815 -1.2599 -0.4622  0.5375
 2356SOL    MW4 9424   3.585   0.364   3.831 -0.6565 -0.3190 -0.5110
 2357SOL     OW 9425   3.813   0.502   3.759  0.1454 -0.1149 -0.3613
 2357SOL    HW2 9426   3.892   0.457   3.790  0.4611  0.8418  0.2435
 2357SOL    HW3 9427   3.817   0.588   3.801 -1.6629 -0.3674  0.3412
 2357SOL    MW4 9428   3.824   0.508   3.768 -0.0515 -0.0220 -0.1888
 2358SOL     OW 9429   3.831   0.760   3.854 -0.3598 -0.0244  0.2323
 2358SOL    HW2 9430   3.915   0.799   3.828 -0.5098 -0.4433 -0.8806
 2358SOL    HW3 9431   3.765   0.809   3.805 -0.5315 -1.8420 -1.4007
 2358SOL    MW4 9432   3.834   0.772   3.844 -0.4023 -0.3195 -0.1300
 2359SOL     OW 9433   3.651   0.925   3.717 -0.4314  0.4946 -0.0479
 2359SOL    HW2 9434   3.644   1.006   3.769 -2.7220  1.7160 -2.1658
 2359SOL    HW3 9435   3.572   0.876   3.738  1.0855 -1.4234  1.4460
 2359SOL    MW4 9436   3.640   0.930   3.727 -0.5335  0.4027 -0.1302
 2360SOL     OW 9437   3.564   1.181   3.833 -0.2073 -0.6260  0.0250
 2360SOL    HW2 9438   3.637   1.230   3.795 -1.3115  1.3189  0.4017
 2360SOL    HW3 9439   3.486   1.225   3.801 -1.1968 -0.8184  2.1083
 2360SOL    MW4 9440   3.564   1.193   3.823 -0.4835 -0.3948  0.3496
 2361SOL     OW 9441   3.793   1.277   3.741 -0.4466  0.7411 -0.3102
 2361SOL    HW2 9442   3.872   1.229   3.765 -0.2596  0.1446 -2.0499
 2361SOL    HW3 9443   3.802   1.361   3.786  0.0229 -0.1958  1.4124
 2361SOL    MW4 9444   3.805   1.282   3.750 -0.3600  0.5388 -0.3125
 2362SOL     OW 9445   3.834   1.526   3.854  0.0870  0.4003  0.1658
 2362SOL    HW2 9446   3.819   1.524   3.949 -0.1871  1.3997  0.1502
 2362SOL    HW3 9447   3.755   1.565   3.818  0.6126  0.9867 -0.3778
 2362SOL    MW4 9448   3.822   1.531   3.862  0.1202  0.6095  0.0920
 2363SOL     OW 9449   3.605   1.615   3.760  0.1923 -0.3219 -0.1903
 2363SOL    HW2 9450   3.513   1.596   3.778  0.2787 -0.4055  0.1692
 2363SOL    HW3 9451   3.610   1.625   3.665 -0.4545  1.1165 -0.0801
 2363SOL    MW4 9452   3.594   1.614   3.750  0.1183 -0.1431 -0.1283
 2364SOL     OW 9453   3.636   1.856   3.881  0.0439 -0.1315  0.0058
 2364SOL    HW2 9454   3.635   1.773   3.834 -0.4609  0.7208 -1.5391
 2364SOL    HW3 9455   3.560   1.904   3.848 -0.5025  0.3941  1.9205
 2364SOL    MW4 9456   3.626   1.851   3.871 -0.0948  0.0503  0.0546
 2365SOL     OW 9457   3.828   2.054   3.792  0.1484 -0.4402  0.0941
 2365SOL    HW2 9458   3.913   2.014   3.812 -0.1198 -1.6326 -1.0716
 2365SOL    HW3 9459   3.764   1.985   3.811 -0.6917  0.8655  2.2111
 2365SOL    MW4 9460   3.831   2.039   3.797  0.0021 -0.4253  0.2196
 2366SOL     OW 9461   3.797   2.321   3.900 -0.2869  0.7608 -0.4321
 2366SOL    HW2 9462   3.710   2.347   3.870 -0.6515  0.7390  0.5661
 2366SOL    HW3 9463   3.812   2.236   3.859 -0.9056  0.5835 -0.2937
 2366SOL    MW4 9464   3.788   2.313   3.891 -0.4166  0.7345 -0.2821
 2367SOL     OW 9465   3.560   2.381   3.784 -0.2073  0.3683  0.1820
 2367SOL    HW2 9466   3.489   2.321   3.802  0.4598 -0.4066  0.2463
 2367SOL    HW3 9467   3.554   2.397   3.689  0.0775 -0.3967  0.0297
 2367SOL    MW4 9468   3.550   2.375   3.774 -0.0817  0.1651  0.1704
 2368SOL     OW 9469   3.587   2.654   3.866  0.5006 -0.1188 -0.3218
 2368SOL    HW2 9470   3.562   2.562   3.852 -1.7706  0.3321  0.5698
 2368SOL    HW3 9471   3.516   2.704   3.826 -0.3179  1.2167  2.6458
 2368SOL    MW4 9472   3.575   2.648   3.859  0.0929  0.1169  0.1874
 2369SOL     OW 9473   3.792   2.806   3.794  0.1784 -0.6052 -0.0552
 2369SOL    HW2 9474   3.872   2.759   3.818  1.0333  0.1444 -1.3769
 2369SOL    HW3 9475   3.721   2.748   3.822  1.1869 -1.6364  0.4246
 2369SOL    MW4 9476   3.794   2.792   3.801  0.4242 -0.6424 -0.1663
 2370SOL     OW 9477   3.823   3.063   3.891 -0.0140  0.0607  0.3266
 2370SOL    HW2 9478   3.745   3.105   3.854  0.6833  0.7855 -0.3524
 2370SOL    HW3 9479   3.824   2.976   3.851 -0.5329  0.0103  0.4199
 2370SOL    MW4 9480   3.813   3.057   3.880  0.0095  0.1497  0.2494
 2371SOL     OW 9481   3.608   3.189   3.722  0.1623  0.0898  0.3314
 2371SOL    HW2 9482   3.607   3.284   3.734 -1.4602  0.3624 -1.5728
 2371SOL    HW3 9483   3.587   3.177   3.629 -0.5966 -2.1599  0.7670
 2371SOL    MW4 9484   3.605   3.200   3.711 -0.1519 -0.1711  0.1376
 2372SOL     OW 9485   3.616   3.449   3.817 -0.4255  0.3931  0.1643
 2372SOL    HW2 9486   3.623   3.430   3.910  0.4771  0.3849  0.0958
 2372SOL    HW3 9487   3.543   3.511   3.810  0.3496  1.4050  1.0103
 2372SOL    MW4 9488   3.607   3.454   3.828 -0.2041  0.5255  0.2669
 2373SOL     OW 9489   3.832   3.625   3.788  0.0300 -0.1774  0.4743
 2373SOL    HW2 9490   3.828   3.707   3.837 -1.1336  0.5169 -0.7605
 2373SOL    HW3 9491   3.753   3.577   3.815 -0.1448 -0.1811 -0.0377
 2373SOL    MW4 9492   3.821   3.629   3.798 -0.1466 -0.0863  0.2438
 2374SOL     OW 9493   3.795   3.878   3.901 -0.3414 -0.1677  0.2048
 2374SOL    HW2 9494   3.793   3.866   3.996  0.8187  0.1222  0.2775
 2374SOL    HW3 9495   3.878   3.924   3.885 -0.5595 -0.1678 -0.9395
 2374SOL    MW4 9496   3.806   3.883   3.912 -0.2171 -0.1295  0.0634
 2375SOL     OW 9497   3.635   4.023   3.729  0.5262  0.2303 -0.2086
 2375SOL    HW2 9498   3.601   4.096   3.780  1.0902  0.5875 -0.3518
 2375SOL    HW3 9499   3.717   3.998   3.772  0.2960 -0.3740 -0.1080
 2375SOL    MW4 9500   3.641   4.029   3.741  0.5702  0.1977 -0.2142
 2376SOL     OW 9501   3.565   4.277   3.853  0.2693 -0.2097 -0.0061
 2376SOL    HW2 9502   3.589   4.274   3.945 -0.7916  1.3386  0.3244
 2376SOL    HW3 9503   3.645   4.304   3.808  0.6125 -0.3472  0.5163
 2376SOL    MW4 9504   3.578   4.280   3.859  0.1746 -0.0235  0.1064
 2377SOL     OW 9505   3.800   4.356   3.730 -0.3369 -0.6238  0.6094
 2377SOL    HW2 9506   3.879   4.321   3.771  0.1475 -0.4521 -0.1688
 2377SOL    HW3 9507   3.811   4.339   3.637 -0.7890  0.2448  0.3878
 2377SOL    MW4 9508   3.812   4.349   3.724 -0.3327 -0.4866  0.4774
 2378SOL     OW 9509   4.257   4.609   3.904  0.2571  0.3054 -0.1469
 2378SOL    HW2 9510   4.263   4.586   3.997  0.9025  1.0031 -0.0124
 2378SOL    HW3 9511   4.341   4.649   3.884  0.3925 -0.5142 -1.2269
 2378SOL    MW4 9512   4.269   4.611   3.914  0.3601  0.2893 -0.2717
 2379SOL     OW 9513   4.011   0.087   3.780  0.0186  0.2303  0.5240
 2379SOL    HW2 9514   4.101   0.070   3.811 -0.1791  0.5844  1.3105
 2379SOL    HW3 9515   4.015   0.072   3.686  1.3001  1.8268  0.2998
 2379SOL    MW4 9516   4.024   0.083   3.772  0.1616  0.4876  0.5982
 2380SOL     OW 9517   4.037   0.364   3.845  0.0628 -0.2739  0.3715
 2380SOL    HW2 9518   4.043   0.349   3.939  0.2850 -0.5002  0.3193
 2380SOL    HW3 9519   4.023   0.278   3.807  0.8572 -0.2919  0.1206
 2380SOL    MW4 9520   4.036   0.351   3.852  0.1969 -0.3062  0.3315
 2381SOL     OW 9521   4.276   0.494   3.784  0.0458 -0.3181  0.6242
 2381SOL    HW2 9522   4.188   0.458   3.796  0.9267 -2.4102  1.1231
 2381SOL    HW3 9523   4.295   0.480   3.691 -0.0971  0.0255  0.5424
 2381SOL    MW4 9524   4.267   0.487   3.773  0.1432 -0.5488  0.6792
 2382SOL     OW 9525   4.292   0.751   3.911 -0.1731 -0.0617  0.6885
 2382SOL    HW2 9526   4.212   0.790   3.875 -0.4281  0.3051  1.6514
 2382SOL    HW3 9527   4.291   0.661   3.876 -0.9287 -0.0172  0.5781
 2382SOL    MW4 9528   4.281   0.744   3.901 -0.3064 -0.0074  0.8010
 2383SOL     OW 9529   4.054   0.892   3.769  0.0136  0.4889 -0.1975
 2383SOL    HW2 9530   4.040   0.983   3.798  0.7565  0.5354  0.0275
 2383SOL    HW3 9531   4.050   0.897   3.674  1.3525  0.9856 -0.2352
 2383SOL    MW4 9532   4.051   0.905   3.761  0.2883  0.5606 -0.1728
 2384SOL     OW 9533   4.026   1.157   3.851  0.0818  0.0860  0.3078
 2384SOL    HW2 9534   3.999   1.173   3.941  0.6765  1.8938  0.1886
 2384SOL    HW3 9535   4.105   1.209   3.840  0.9913 -1.4580 -0.7551
 2384SOL    MW4 9536   4.033   1.166   3.861  0.2802  0.1208  0.1518
 2385SOL     OW 9537   4.273   1.271   3.782  0.5594 -0.3980 -0.2988
 2385SOL    HW2 9538   4.300   1.347   3.834  0.6497 -1.4158  1.1919
 2385SOL    HW3 9539   4.278   1.300   3.691  1.2659  1.1542  0.2262
 2385SOL    MW4 9540   4.277   1.285   3.777  0.6645 -0.3275 -0.0328
 2386SOL     OW 9541   4.299   1.509   3.918  0.1719 -0.4102  0.0756
 2386SOL    HW2 9542   4.220   1.547   3.878 -0.0879 -0.0642  0.9016
 2386SOL    HW3 9543   4.371   1.559   3.880 -0.1392  0.5883  0.7884
 2386SOL    MW4 9544   4.298   1.521   3.907  0.0966 -0.2328  0.2786
 2387SOL     OW 9545   4.066   1.648   3.781 -0.0199 -0.0792  0.2211
 2387SOL    HW2 9546   4.053   1.739   3.808  0.2533 -0.0259  0.1719
 2387SOL    HW3 9547   3.982   1.606   3.798  0.5250 -0.3643  2.3386
 2387SOL    MW4 9548   4.053   1.654   3.787  0.0880 -0.1098  0.4940
 2388SOL     OW 9549   4.066   1.915   3.856  0.1280  0.4841 -0.2156
 2388SOL    HW2 9550   4.062   1.919   3.952 -0.4090  0.9838 -0.2579
 2388SOL    HW3 9551   4.137   1.976   3.833 -0.2314  0.9261 -0.1728
 2388SOL    MW4 9552   4.075   1.924   3.866  0.0097  0.6084 -0.2155
 2389SOL     OW 9553   4.306   2.079   3.783  0.0618 -0.1258  0.8697
 2389SOL    HW2 9554   4.299   2.168   3.819 -1.0324  0.0453  0.2473
 2389SOL    HW3 9555   4.311   2.091   3.689  1.6478 -0.6519  0.8725
 2389SOL    MW4 9556   4.306   2.092   3.776  0.1267 -0.1726  0.7879
 2390SOL     OW 9557   4.279   2.349   3.838  0.2585 -0.8207 -0.4851
 2390SOL    HW2 9558   4.286   2.343   3.933 -0.4327 -0.5110 -0.4144
 2390SOL    HW3 9559   4.190   2.379   3.822  0.1639 -1.4708 -1.2515
 2390SOL    MW4 9560   4.268   2.352   3.849  0.1548 -0.8656 -0.5769
 2391SOL     OW 9561   4.035   2.448   3.795 -0.0792  0.0048 -0.4965
 2391SOL    HW2 9562   4.051   2.534   3.833  0.4398 -0.4395  0.2979
 2391SOL    HW3 9563   3.950   2.421   3.830 -0.5159  0.4419 -1.2073
 2391SOL    MW4 9564   4.026   2.456   3.804 -0.0683  0.0038 -0.4854
 2392SOL     OW 9565   4.054   2.718   3.889  0.0399 -0.4700 -0.0264
 2392SOL    HW2 9566   4.063   2.729   3.983  0.5837  0.8001 -0.2272
 2392SOL    HW3 9567   4.128   2.765   3.851  0.8431 -2.4697 -1.0226
 2392SOL    MW4 9568   4.065   2.725   3.896  0.2176 -0.5663 -0.1844
 2393SOL     OW 9569   4.271   2.859   3.754 -0.1425  0.2062 -0.0496
 2393SOL    HW2 9570   4.274   2.941   3.803  0.3686 -0.0898  0.4215
 2393SOL    HW3 9571   4.358   2.820   3.767 -1.4510 -2.0422  2.5604
 2393SOL    MW4 9572   4.283   2.864   3.763 -0.2477 -0.1295  0.3569
 2394SOL     OW 9573   4.267   3.083   3.902  0.1827 -0.3272  0.0575
 2394SOL    HW2 9574   4.185   3.119   3.867  0.2039  1.7256  2.0761
 2394SOL    HW3 9575   4.335   3.127   3.852  0.1188 -0.0848  0.1827
 2394SOL    MW4 9576   4.265   3.093   3.890  0.1771 -0.0244  0.3404
 2395SOL     OW 9577   4.024   3.214   3.774 -0.3004 -0.1343 -0.1473
 2395SOL    HW2 9578   3.952   3.163   3.811  0.8985 -1.3584  0.5399
 2395SOL    HW3 9579   4.024   3.192   3.681  0.2878 -1.4978  0.1652
 2395SOL    MW4 9580   4.015   3.205   3.767 -0.0646 -0.4757 -0.0154
 2396SOL     OW 9581   4.063   3.480   3.839 -0.0289 -0.0493  0.2662
 2396SOL    HW2 9582   4.050   3.389   3.814  0.9477 -0.0256 -0.3400
 2396SOL    HW3 9583   3.980   3.523   3.817  0.0156 -0.4923 -0.7756
 2396SOL    MW4 9584   4.050   3.474   3.833  0.1058 -0.1046  0.0487
 2397SOL     OW 9585   4.290   3.601   3.748 -0.0674 -0.2804 -0.0337
 2397SOL    HW2 9586   4.219   3.549   3.785  1.8158 -2.5505  0.5323
 2397SOL    HW3 9587   4.369   3.568   3.791  1.2542  2.7521 -0.0364
 2397SOL    MW4 9588   4.291   3.590   3.758  0.3554 -0.1798  0.0407
 2398SOL     OW 9589   4.242   3.832   3.879  0.2517  0.6160  0.4195
 2398SOL    HW2 9590   4.163   3.879   3.849  0.6354  0.9915 -0.0081
 2398SOL    HW3 9591   4.250   3.758   3.820  0.6139  0.9677  0.0267
 2398SOL    MW4 9592   4.232   3.829   3.867  0.3501  0.7119  0.3112
 2399SOL     OW 9593   4.035   4.004   3.817  0.4421 -0.2501  0.2640
 2399SOL    HW2 9594   4.028   4.093   3.852  1.1053 -0.4202  0.8397
 2399SOL    HW3 9595   4.030   4.015   3.722  2.7382  0.6463  0.2002
 2399SOL    MW4 9596   4.034   4.017   3.809  0.8325 -0.1543  0.3315
 2400SOL     OW 9597   4.002   4.285   3.905  0.0268 -0.1182  0.2906
 2400SOL    HW2 9598   4.009   4.297   4.000 -0.7467 -1.5524  0.5393
 2400SOL    HW3 9599   4.083   4.323   3.870  0.2886  0.4747  1.5207
 2400SOL    MW4 9600   4.014   4.292   3.913 -0.0407 -0.2292  0.4857
 2401SOL     OW 9601   4.237   4.371   3.768 -0.2267 -0.3871 -0.2737
 2401SOL    HW2 9602   4.243   4.462   3.798 -2.2362 -0.1482 -0.5776
 2401SOL    HW3 9603   4.315   4.329   3.806  0.9039  1.5154 -0.3995
 2401SOL    MW4 9604   4.248   4.377   3.777 -0.3427 -0.1046 -0.3304
 2402SOL     OW 9605   0.267   4.653   4.165  0.2732  0.8772  0.0090
 2402SOL    HW2 9606   0.353   4.678   4.199  0.4861 -0.9586  0.9042
 2402SOL    HW3 9607   0.262   4.559   4.181 -1.7276  0.8842 -0.4524
 2402SOL    MW4 9608   0.278   4.644   4.172  0.0373  0.6359  0.0662
 2403SOL     OW 9609   4.485   0.066   4.239  0.1448  0.1584 -0.1217
 2403SOL    HW2 9610   4.511   0.068   4.331  0.0288 -0.0792 -0.0832
 2403SOL    HW3 9611   4.567   0.061   4.191  0.1848 -0.1805 -0.0151
 2403SOL    MW4 9612   4.499   0.066   4.245  0.1348  0.0823 -0.1026
 2404SOL     OW 9613   4.458   0.360   4.167  0.2271  0.3218 -0.1411
 2404SOL    HW2 9614   4.453   0.272   4.204  1.5240  0.1003 -0.4437
 2404SOL    HW3 9615   4.430   0.350   4.076 -1.9708  0.6780  0.4791
 2404SOL    MW4 9616   4.454   0.347   4.160  0.1082  0.3395 -0.0992
 2405SOL     OW 9617   0.249   0.497   4.208 -0.0026 -0.1591 -0.3818
 2405SOL    HW2 9618   0.322   0.436   4.195 -0.3593 -0.6349 -0.1508
 2405SOL    HW3 9619   0.175   0.454   4.166  0.0283  0.6929 -1.3095
 2405SOL    MW4 9620   0.249   0.483   4.201 -0.0456 -0.1095 -0.4737
 2406SOL     OW 9621   0.243   0.762   4.142 -0.2294  0.2916 -0.6337
 2406SOL    HW2 9622   0.160   0.798   4.171 -1.8074 -1.6532 -2.6210
 2406SOL    HW3 9623   0.243   0.671   4.173  0.8034  0.0515 -1.2915
 2406SOL    MW4 9624   0.232   0.755   4.150 -0.3013  0.0033 -0.9827
 2407SOL     OW 9625   0.017   0.843   4.292 -0.2152  0.2653 -0.1814
 2407SOL    HW2 9626  -0.061   0.792   4.270 -0.7545  0.7921  0.4586
 2407SOL    HW3 9627   0.002   0.928   4.252 -0.3384  0.6218  0.6130
 2407SOL    MW4 9628   0.005   0.847   4.284 -0.3026  0.3818  0.0078
 2408SOL     OW 9629   0.006   1.080   4.148 -0.5065  0.3544 -0.1804
 2408SOL    HW2 9630   0.067   1.145   4.183 -1.3372  0.5617  0.9051
 2408SOL    HW3 9631   0.016   1.087   4.053  1.3063  0.2416 -0.0108
 2408SOL    MW4 9632   0.015   1.090   4.140 -0.3769  0.3669 -0.0148
 2409SOL     OW 9633   0.145   1.311   4.254  0.7297  0.0432 -0.4558
 2409SOL    HW2 9634   0.134   1.320   4.348  0.0392 -1.1138 -0.4113
 2409SOL    HW3 9635   0.169   1.398   4.223 -0.4757  0.7518  0.6020
 2409SOL    MW4 9636   0.147   1.324   4.262  0.4796 -0.0160 -0.3104
 2410SOL     OW 9637   0.360   1.363   4.640  0.2281  0.2365 -0.2287
 2410SOL    HW2 9638   0.321   1.382   4.726 -0.0072 -0.0741 -0.2660
 2410SOL    HW3 9639   0.424   1.295   4.657  0.4168  0.4084 -0.2468
 2410SOL    MW4 9640   0.363   1.357   4.654  0.2220  0.2182 -0.2360
 2411SOL     OW 9641   0.196   1.550   4.135 -0.0249 -0.1483  0.0776
 2411SOL    HW2 9642   0.130   1.595   4.188  0.5707  1.1634 -0.2655
 2411SOL    HW3 9643   0.279   1.585   4.166  0.4568 -1.1512 -0.0887
 2411SOL    MW4 9644   0.198   1.561   4.146  0.1173 -0.1076  0.0104
 2412SOL     OW 9645   0.204   2.057   4.262 -0.5534  0.2244 -0.4431
 2412SOL    HW2 9646   0.211   2.074   4.356  1.1584  1.2738 -0.7337
 2412SOL    HW3 9647   0.279   2.002   4.242 -1.9603 -1.5640 -0.8699
 2412SOL    MW4 9648   0.215   2.052   4.272 -0.5132  0.1269 -0.5377
 2413SOL     OW 9649   0.687   1.785   4.626  0.2267 -0.2607  0.1534
 2413SOL    HW2 9650   0.669   1.860   4.570 -0.4222  0.3993  1.2335
 2413SOL    HW3 9651   0.610   1.729   4.617  0.9979 -1.1236 -1.1659
 2413SOL    MW4 9652   0.675   1.787   4.618  0.2428 -0.2875  0.1219
 2414SOL     OW 9653   0.218   2.308   4.143 -0.4149  0.1319 -0.0352
 2414SOL    HW2 9654   0.306   2.341   4.162 -0.4742  0.0077  0.4758
 2414SOL    HW3 9655   0.213   2.226   4.193 -1.2442  0.7311  0.8875
 2414SOL    MW4 9656   0.229   2.301   4.152 -0.5322  0.1946  0.1540
 2415SOL     OW 9657   4.478   2.414   4.274 -0.1940 -0.0738  0.4571
 2415SOL    HW2 9658   4.407   2.363   4.237  0.2439 -0.5181  0.2258
 2415SOL    HW3 9659   4.554   2.392   4.221 -0.4313  2.3726 -0.9765
 2415SOL    MW4 9660   4.479   2.405   4.262 -0.1675  0.1904  0.2374
 2416SOL     OW 9661   0.041   2.646   4.100 -0.1576  0.2962  0.2087
 2416SOL    HW2 9662   0.116   2.697   4.132 -0.1102 -0.8736  1.9958
 2416SOL    HW3 9663   0.025   2.581   4.168 -0.7305 -1.5904 -1.6675
 2416SOL    MW4 9664   0.049   2.644   4.113 -0.2269 -0.1071  0.1970
 2417SOL     OW 9665   0.225   2.789   4.225 -0.0935  0.1646 -0.1837
 2417SOL    HW2 9666   0.303   2.736   4.208 -0.3427 -0.2212 -0.1282
 2417SOL    HW3 9667   0.250   2.878   4.198  1.8509  0.9665  3.8584
 2417SOL    MW4 9668   0.239   2.794   4.219  0.1302  0.2195  0.3569
 2418SOL     OW 9669   0.254   3.079   4.165 -0.4909 -0.3068  0.1169
 2418SOL    HW2 9670   0.334   3.119   4.199 -1.2604  0.6417  0.8072
 2418SOL    HW3 9671   0.183   3.133   4.199 -1.3999 -0.7275 -1.0610
 2418SOL    MW4 9672   0.256   3.092   4.174 -0.7124 -0.2371  0.0525
 2419SOL     OW 9673   0.043   3.216   4.257 -0.1524  0.6219  0.4965
 2419SOL    HW2 9674  -0.036   3.172   4.224 -0.3504  0.4792  1.1490
 2419SOL    HW3 9675   0.031   3.307   4.232 -0.3045  0.5192  0.1842
 2419SOL    MW4 9676   0.031   3.222   4.249 -0.1986  0.5895  0.5414
 2420SOL     OW 9677   0.023   3.476   4.160 -0.3022  0.4356 -0.8762
 2420SOL    HW2 9678  -0.061   3.519   4.173 -0.3984 -0.4630  1.6023
 2420SOL    HW3 9679   0.033   3.472   4.065 -1.4759  3.5679 -1.1876
 2420SOL    MW4 9680   0.014   3.481   4.149 -0.4698  0.7303 -0.5903
 2421SOL     OW 9681   0.257   3.634   4.236 -0.3999  0.1721  0.0033
 2421SOL    HW2 9682   0.317   3.568   4.204  0.1248 -0.8376  2.9147
 2421SOL    HW3 9683   0.171   3.592   4.234 -0.1463 -0.4403  1.3173
 2421SOL    MW4 9684   0.253   3.620   4.232 -0.2972 -0.0419  0.5608
 2422SOL     OW 9685   0.278   3.890   4.159 -0.1914 -0.0763 -0.1049
 2422SOL    HW2 9686   0.194   3.921   4.191 -0.2153  0.4344 -0.6596
 2422SOL    HW3 9687   0.279   3.797   4.180 -0.1750  0.2664  1.4630
 2422SOL    MW4 9688   0.267   3.882   4.166 -0.1924  0.0363  0.0288
 2423SOL     OW 9689   0.027   3.980   4.248 -0.4335 -0.2495 -0.0311
 2423SOL    HW2 9690   0.004   3.966   4.340 -0.5394  0.3570  0.0330
 2423SOL    HW3 9691  -0.041   3.932   4.200 -1.0939  0.4452  0.1875
 2423SOL    MW4 9692   0.015   3.972   4.254 -0.5346 -0.0778  0.0062
 2424SOL     OW 9693   0.027   4.249   4.166  0.4414  0.3412 -0.2320
 2424SOL    HW2 9694   0.024   4.156   4.189  1.2384  0.2133 -0.6214
 2424SOL    HW3 9695  -0.008   4.252   4.077 -2.7755  0.8514  0.9987
 2424SOL    MW4 9696   0.022   4.237   4.157  0.1221  0.3916 -0.1210
 2425SOL     OW 9697   0.269   4.392   4.215  0.0275  0.0762 -0.2951
 2425SOL    HW2 9698   0.248   4.422   4.303  0.8184 -1.3476  0.3961
 2425SOL    HW3 9699   0.200   4.328   4.195 -0.2799  0.5617 -0.8050
 2425SOL    MW4 9700   0.257   4.388   4.224  0.0913 -0.0476 -0.2712
 2426SOL     OW 9701   0.391   0.282   4.566  0.1030  0.2074 -0.3127
 2426SOL    HW2 9702   0.449   0.349   4.529  0.7723 -0.7699 -1.0342
 2426SOL    HW3 9703   0.318   0.276   4.505  0.5045 -0.3928 -0.7290
 2426SOL    MW4 9704   0.389   0.290   4.553  0.2443 -0.0007 -0.4628
 2427SOL     OW 9705   0.142   0.363   4.434  0.2328 -0.0557 -0.1221
 2427SOL    HW2 9706   0.102   0.425   4.495 -1.4338  0.2325 -1.4721
 2427SOL    HW3 9707   0.185   0.418   4.369  0.7789 -0.3489 -0.0132
 2427SOL    MW4 9708   0.143   0.378   4.434  0.0850 -0.0563 -0.2858
 2428SOL     OW 9709   0.460   0.343   4.137  0.4918  0.1112 -0.7088
 2428SOL    HW2 9710   0.522   0.410   4.165 -0.3687  0.8786 -0.6061
 2428SOL    HW3 9711   0.459   0.350   4.041  1.0436 -0.3485 -0.7542
 2428SOL    MW4 9712   0.468   0.353   4.128  0.4511  0.1518 -0.7012
 2429SOL     OW 9713   0.661   0.532   4.207  0.1617  0.0345  0.1419
 2429SOL    HW2 9714   0.751   0.507   4.190 -0.0118  0.5017 -1.5782
 2429SOL    HW3 9715   0.662   0.628   4.204 -0.2272  0.0715  1.0213
 2429SOL    MW4 9716   0.673   0.541   4.204  0.0875  0.1010  0.0309
 2430SOL     OW 9717   0.621   0.812   4.159  0.2359  0.2791 -0.1681
 2430SOL    HW2 9718   0.554   0.878   4.143 -0.9860 -1.0576 -0.6128
 2430SOL    HW3 9719   0.651   0.787   4.072 -1.5368 -2.0092 -0.1535
 2430SOL    MW4 9720   0.616   0.818   4.145 -0.1592 -0.1992 -0.2248
 2431SOL     OW 9721   0.414   0.975   4.118 -0.0598 -0.0463  0.2593
 2431SOL    HW2 9722   0.406   1.010   4.029 -3.0771  0.8569  0.8084
 2431SOL    HW3 9723   0.356   0.898   4.118  1.4233 -1.1822  0.9270
 2431SOL    MW4 9724   0.405   0.969   4.106 -0.2622 -0.0770  0.4198
 2432SOL     OW 9725   0.451   1.626   4.519 -0.0776  0.0439 -0.0722
 2432SOL    HW2 9726   0.435   1.548   4.572  1.6768  1.0020  1.9395
 2432SOL    HW3 9727   0.378   1.684   4.539  0.0547  0.0050  0.5106
 2432SOL    MW4 9728   0.440   1.623   4.528  0.1713  0.1651  0.2701
 2433SOL     OW 9729   0.638   1.249   4.246 -0.0356 -0.3184 -0.2057
 2433SOL    HW2 9730   0.548   1.231   4.271  0.2128 -0.2707  0.7627
 2433SOL    HW3 9731   0.645   1.345   4.246  0.8823 -0.3363  3.0248
 2433SOL    MW4 9732   0.627   1.260   4.249  0.1183 -0.3145  0.3483
 2434SOL     OW 9733   0.681   1.523   4.194 -0.0602  0.2505  0.2083
 2434SOL    HW2 9734   0.758   1.578   4.212 -0.0823  0.6196 -0.7824
 2434SOL    HW3 9735   0.675   1.522   4.098 -0.1989 -1.2975  0.2272
 2434SOL    MW4 9736   0.691   1.530   4.183 -0.0814  0.0950  0.0801
 2435SOL     OW 9737   0.432   1.636   4.251 -0.0610  0.8878 -0.3855
 2435SOL    HW2 9738   0.518   1.603   4.224 -0.0096 -0.3830  1.3017
 2435SOL    HW3 9739   0.431   1.627   4.346 -2.5318 -0.2713 -0.4786
 2435SOL    MW4 9740   0.443   1.630   4.260 -0.3802  0.5672 -0.1752
 2436SOL     OW 9741   0.419   1.916   4.166  0.5967  0.4305 -0.1466
 2436SOL    HW2 9742   0.421   1.826   4.200 -0.2479  0.5057  0.1260
 2436SOL    HW3 9743   0.431   1.907   4.072  0.1638  0.0050 -0.1600
 2436SOL    MW4 9744   0.421   1.903   4.158  0.4281  0.3843 -0.1124
 2437SOL     OW 9745   0.683   2.022   4.209  0.4754  0.4395  0.0636
 2437SOL    HW2 9746   0.687   2.025   4.304  0.2889 -1.7107  0.1701
 2437SOL    HW3 9747   0.594   1.991   4.189 -0.1031  2.6123 -0.8810
 2437SOL    MW4 9748   0.672   2.018   4.219  0.3745  0.4425 -0.0469
 2438SOL     OW 9749   0.692   2.286   4.093  0.2550  0.2345 -0.2066
 2438SOL    HW2 9750   0.701   2.196   4.127 -0.2120 -0.2060 -1.2462
 2438SOL    HW3 9751   0.706   2.278   3.999  3.1134  1.6888  0.0290
 2438SOL    MW4 9752   0.695   2.273   4.085  0.5705  0.3683 -0.3127
 2439SOL     OW 9753   0.468   2.400   4.203  0.2839  0.6338 -0.4061
 2439SOL    HW2 9754   0.482   2.494   4.192 -0.2982  0.8756  0.8776
 2439SOL    HW3 9755   0.542   2.359   4.158 -0.1507  1.6635 -2.0922
 2439SOL    MW4 9756   0.479   2.407   4.195  0.1498  0.8015 -0.4592
 2440SOL     OW 9757   0.470   2.677   4.170 -0.1309  0.0316  0.1987
 2440SOL    HW2 9758   0.545   2.722   4.209  0.0689 -0.1008 -0.0314
 2440SOL    HW3 9759   0.473   2.701   4.078  0.4882 -1.1310 -0.1077
 2440SOL    MW4 9760   0.480   2.686   4.163 -0.0229 -0.1392  0.1279
 2441SOL     OW 9761   0.692   2.798   4.258  0.1418  0.3810 -0.0315
 2441SOL    HW2 9762   0.717   2.809   4.350  1.0254 -0.3679 -0.1787
 2441SOL    HW3 9763   0.695   2.887   4.222 -0.8190  0.7665  0.8092
 2441SOL    MW4 9764   0.695   2.811   4.266  0.1316  0.3331  0.0600
 2442SOL     OW 9765   0.741   3.071   4.175 -0.1508 -0.1993 -0.0887
 2442SOL    HW2 9766   0.809   3.138   4.184 -0.6411  0.5267 -1.5193
 2442SOL    HW3 9767   0.660   3.115   4.204 -0.2769 -0.5381  0.0723
 2442SOL    MW4 9768   0.739   3.086   4.180 -0.2321 -0.1482 -0.2562
 2443SOL     OW 9769   0.501   3.215   4.262 -0.4677 -0.2350 -0.3995
 2443SOL    HW2 9770   0.505   3.258   4.347  0.5619 -0.1503 -0.4834
 2443SOL    HW3 9771   0.475   3.284   4.201  1.9124  0.4673 -0.6542
 2443SOL    MW4 9772   0.498   3.230   4.265 -0.0179 -0.1312 -0.4442
 2444SOL     OW 9773   0.435   3.446   4.110 -0.4302 -0.0851  0.2402
 2444SOL    HW2 9774   0.514   3.495   4.134 -1.1841  0.6404  1.2658
 2444SOL    HW3 9775   0.439   3.441   4.014  1.5450 -1.2414  0.3554
 2444SOL    MW4 9776   0.446   3.452   4.100 -0.2691 -0.1419  0.3907
 2445SOL     OW 9777   0.661   3.613   4.217 -0.0160  0.0958 -0.0836
 2445SOL    HW2 9778   0.647   3.605   4.311  1.4286  0.8639  0.2092
 2445SOL    HW3 9779   0.742   3.566   4.201  0.5757  1.3013 -0.6869
 2445SOL    MW4 9780   0.670   3.606   4.227  0.2526  0.3562 -0.1245
 2446SOL     OW 9781   0.637   3.864   4.109  0.0130  0.2671 -0.0262
 2446SOL    HW2 9782   0.594   3.925   4.170 -0.4652  0.4552 -0.5520
 2446SOL    HW3 9783   0.621   3.778   4.147 -0.6712  0.3511 -0.1174
 2446SOL    MW4 9784   0.629   3.861   4.122 -0.1404  0.3030 -0.1076
 2447SOL     OW 9785   0.476   4.013   4.303 -0.0476 -0.5466 -0.2737
 2447SOL    HW2 9786   0.471   4.106   4.280  1.2099 -0.1511  0.9704
 2447SOL    HW3 9787   0.394   3.976   4.271 -1.1019  1.2403  0.2722
 2447SOL    MW4 9788   0.465   4.021   4.296 -0.0208 -0.2586 -0.0375
 2448SOL     OW 9789   0.512   4.261   4.175 -0.0979  0.1963 -0.2598
 2448SOL    HW2 9790   0.437   4.319   4.186  0.0335  0.5372 -1.1632
 2448SOL    HW3 9791   0.505   4.228   4.086 -1.6440 -3.2747  1.0399
 2448SOL    MW4 9792   0.501   4.264   4.165 -0.2845 -0.2167 -0.2075
 2449SOL     OW 9793   0.715   4.394   4.304 -0.6664  0.2422 -0.1005
 2449SOL    HW2 9794   0.654   4.329   4.270 -1.9525  1.7038 -0.6364
 2449SOL    HW3 9795   0.708   4.468   4.244  1.8998  0.3209 -0.3658
 2449SOL    MW4 9796   0.706   4.395   4.292 -0.4975  0.4454 -0.2062
 2450SOL     OW 9797   1.120   0.022   4.170 -0.1240 -0.4552  0.2485
 2450SOL    HW2 9798   1.105  -0.067   4.200  0.8719 -1.1876 -1.3236
 2450SOL    HW3 9799   1.127   0.014   4.075 -0.4928  1.3714  0.0426
 2450SOL    MW4 9800   1.119   0.010   4.161 -0.0412 -0.3108  0.0139
 2451SOL     OW 9801   0.718   4.635   4.140 -0.3329  0.1194 -0.2153
 2451SOL    HW2 9802   0.788   4.701   4.145 -1.7123  1.5879  0.0674
 2451SOL    HW3 9803   0.704   4.623   4.046  0.9956 -0.9317 -0.2833
 2451SOL    MW4 9804   0.726   4.642   4.129 -0.3396  0.1745 -0.1870
 2452SOL     OW 9805   0.920   0.438   4.203  0.0129 -0.1170  0.0788
 2452SOL    HW2 9806   0.991   0.476   4.255  1.4474 -0.2018 -1.7777
 2452SOL    HW3 9807   0.910   0.349   4.237 -0.3913  0.4654  1.5066
 2452SOL    MW4 9808   0.928   0.431   4.214  0.1488 -0.0514  0.0223
 2453SOL     OW 9809   1.154   0.562   4.276 -0.1928 -0.6175  0.2180
 2453SOL    HW2 9810   1.172   0.532   4.365  0.4991 -0.6435  0.0744
 2453SOL    HW3 9811   1.221   0.519   4.223 -0.7671 -0.8118 -0.3557
 2453SOL    MW4 9812   1.165   0.552   4.281 -0.1773 -0.6466  0.1233
 2454SOL     OW 9813   1.108   0.820   4.188 -0.3103 -0.0507  0.3986
 2454SOL    HW2 9814   1.189   0.861   4.217 -1.0239  1.1461  0.7364
 2454SOL    HW3 9815   1.114   0.730   4.219  1.0834 -0.0894  0.0377
 2454SOL    MW4 9816   1.120   0.814   4.196 -0.2206  0.1021  0.3956
 2455SOL     OW 9817   0.883   0.925   4.280 -0.2396 -0.4323  0.6998
 2455SOL    HW2 9818   0.956   0.883   4.235  0.2824 -0.1835  1.3109
 2455SOL    HW3 9819   0.806   0.878   4.249 -0.0129  0.4705 -1.3287
 2455SOL    MW4 9820   0.883   0.914   4.270 -0.1408 -0.2804  0.5128
 2456SOL     OW 9821   0.878   1.168   4.154 -0.1008 -0.0320 -0.0675
 2456SOL    HW2 9822   0.882   1.081   4.193  0.2943 -0.4484 -1.0465
 2456SOL    HW3 9823   0.793   1.203   4.183 -0.4436 -0.8993 -0.0248
 2456SOL    MW4 9824   0.867   1.161   4.163 -0.0939 -0.2014 -0.1911
 2457SOL     OW 9825   1.133   1.349   4.288  0.1014 -0.0992 -0.4548
 2457SOL    HW2 9826   1.129   1.341   4.384  0.3401  1.6695 -0.2760
 2457SOL    HW3 9827   1.059   1.297   4.257  1.1900 -2.3692  0.5591
 2457SOL    MW4 9828   1.123   1.341   4.297  0.2765 -0.1653 -0.2974
 2458SOL     OW 9829   1.136   1.585   4.151  0.1486  0.1067 -0.2376
 2458SOL    HW2 9830   1.052   1.625   4.176  0.5092  0.5563  0.2594
 2458SOL    HW3 9831   1.138   1.502   4.199 -0.4494 -0.3515 -1.0069
 2458SOL    MW4 9832   1.125   1.580   4.161  0.1173  0.1056 -0.2735
 2459SOL     OW 9833   0.900   1.663   4.250 -0.1260 -0.0995 -0.1319
 2459SOL    HW2 9834   0.908   1.651   4.344 -0.0186  1.1512  0.0251
 2459SOL    HW3 9835   0.903   1.758   4.237 -0.8899 -0.2260 -1.3267
 2459SOL    MW4 9836   0.901   1.674   4.260 -0.2126  0.0488 -0.2689
 2460SOL     OW 9837   0.946   1.918   4.160 -0.0783 -0.2333 -0.0150
 2460SOL    HW2 9838   0.863   1.963   4.175 -0.2806 -0.3794 -0.7202
 2460SOL    HW3 9839   0.947   1.898   4.067  0.4722 -0.7816  0.1034
 2460SOL    MW4 9840   0.936   1.921   4.150 -0.0323 -0.3249 -0.0924
 2461SOL     OW 9841   1.161   2.068   4.278 -0.0439 -0.0647 -0.5071
 2461SOL    HW2 9842   1.154   2.078   4.372  1.2409 -0.2562 -0.3824
 2461SOL    HW3 9843   1.085   2.016   4.253 -0.1078 -0.4492  0.4936
 2461SOL    MW4 9844   1.150   2.062   4.287  0.1172 -0.1407 -0.3586
 2462SOL     OW 9845   1.169   2.314   4.134  0.3355 -0.5316  0.0323
 2462SOL    HW2 9846   1.255   2.353   4.152  0.0199 -0.1698  0.7970
 2462SOL    HW3 9847   1.167   2.235   4.189 -0.6919  0.6558  1.7634
 2462SOL    MW4 9848   1.180   2.309   4.144  0.1583 -0.3272  0.3616
 2463SOL     OW 9849   0.907   2.419   4.220  0.5780 -0.2436  0.0328
 2463SOL    HW2 9850   0.982   2.383   4.172  0.7364 -1.1437  0.9261
 2463SOL    HW3 9851   0.831   2.377   4.180  0.5325  0.7168 -0.9146
 2463SOL    MW4 9852   0.907   2.408   4.208  0.5929 -0.2357  0.0256
 2464SOL     OW 9853   0.890   2.678   4.119 -0.0977  0.2526  0.0600
 2464SOL    HW2 9854   0.898   2.587   4.150  1.4202  0.2659 -0.2702
 2464SOL    HW3 9855   0.813   2.712   4.165 -1.1704 -1.4500 -0.4150
 2464SOL    MW4 9856   0.881   2.670   4.129 -0.0390  0.0297 -0.0462
 2465SOL     OW 9857   1.139   2.792   4.216 -0.2563 -0.0334  0.3846
 2465SOL    HW2 9858   1.128   2.885   4.198 -0.7277 -0.0324  0.6629
 2465SOL    HW3 9859   1.063   2.751   4.174 -0.8243 -0.1379  1.5006
 2465SOL    MW4 9860   1.127   2.799   4.208 -0.3934 -0.0470  0.5686
 2466SOL     OW 9861   1.112   3.076   4.128 -0.2994  0.2669  0.1863
 2466SOL    HW2 9862   1.188   3.134   4.133 -1.1108  1.2070  1.8549
 2466SOL    HW3 9863   1.087   3.077   4.035 -0.4404  2.7659  0.2224
 2466SOL    MW4 9864   1.119   3.083   4.116 -0.4251  0.7207  0.4112
 2467SOL     OW 9865   0.941   3.263   4.258 -0.1789  0.6718  0.3363
 2467SOL    HW2 9866   0.932   3.237   4.349 -0.2427  1.2616  0.4977
 2467SOL    HW3 9867   1.005   3.202   4.222  0.9973  1.3938  1.1607
 2467SOL    MW4 9868   0.948   3.251   4.265 -0.0321  0.8448  0.4664
 2468SOL     OW 9869   0.916   3.504   4.157 -0.0409 -0.3432 -0.3185
 2468SOL    HW2 9870   0.927   3.413   4.183  0.5719 -0.0960  0.3004
 2468SOL    HW3 9871   0.904   3.501   4.062 -1.2552 -1.1729 -0.1576
 2468SOL    MW4 9872   0.916   3.492   4.148 -0.1203 -0.4201 -0.2156
 2469SOL     OW 9873   0.495   3.859   4.553  0.0678  0.1274  0.1289
 2469SOL    HW2 9874   0.478   3.907   4.472  0.4878 -0.6796 -0.4458
 2469SOL    HW3 9875   0.576   3.897   4.587  0.9328 -0.8198 -0.8359
 2469SOL    MW4 9876   0.503   3.871   4.547  0.2373 -0.1040 -0.0742
 2470SOL     OW 9877   1.159   3.831   4.170 -0.1378  0.4820 -0.3140
 2470SOL    HW2 9878   1.224   3.894   4.201  0.8432  0.3336 -1.9777
 2470SOL    HW3 9879   1.076   3.878   4.175  0.4944  1.7081 -0.9000
 2470SOL    MW4 9880   1.157   3.845   4.175  0.0751  0.6242 -0.6108
 2471SOL     OW 9881   0.903   3.954   4.180 -0.2805  0.0296  0.2096
 2471SOL    HW2 9882   0.893   4.048   4.161 -0.5716  0.0664  0.5616
 2471SOL    HW3 9883   0.818   3.916   4.159 -0.4990  0.0145  1.1059
 2471SOL    MW4 9884   0.891   3.962   4.175 -0.3477  0.0325  0.3743
 2472SOL     OW 9885   0.918   4.240   4.163  0.5727 -0.0212  0.1267
 2472SOL    HW2 9886   0.990   4.293   4.196  0.0226  0.1358  1.0765
 2472SOL    HW3 9887   0.840   4.279   4.200 -0.0949  0.3708 -1.6328
 2472SOL    MW4 9888   0.917   4.252   4.172  0.4121  0.0512  0.0198
 2473SOL     OW 9889   1.106   4.422   4.261  0.0764 -0.0208 -0.1605
 2473SOL    HW2 9890   1.105   4.404   4.355 -0.1884  1.8529  0.2228
 2473SOL    HW3 9891   1.182   4.374   4.228  0.1979 -0.6562  1.0063
 2473SOL    MW4 9892   1.116   4.413   4.269  0.0575  0.1426  0.0440
 2474SOL     OW 9893   1.619   0.059   4.129 -0.3271 -0.0652 -0.1885
 2474SOL    HW2 9894   1.665   0.143   4.126 -0.4268  0.0162  0.5035
 2474SOL    HW3 9895   1.542   0.076   4.183  0.3938 -0.9698  1.1439
 2474SOL    MW4 9896   1.615   0.072   4.136 -0.2452 -0.1738  0.0786
 2475SOL     OW 9897   1.363   0.168   4.232 -0.4808  0.1985  0.1764
 2475SOL    HW2 9898   1.360   0.203   4.321  2.0745  0.8605  0.0284
 2475SOL    HW3 9899   1.275   0.132   4.218 -1.0332  0.4130  2.8157
 2475SOL    MW4 9900   1.351   0.168   4.242 -0.2166  0.3142  0.5051
 2476SOL     OW 9901   1.334   0.419   4.134  0.1010  0.1628 -0.2085
 2476SOL    HW2 9902   1.416   0.466   4.147  0.4842 -0.2456 -1.1393
 2476SOL    HW3 9903   1.346   0.336   4.179 -0.0142  0.3334  0.1385
 2476SOL    MW4 9904   1.346   0.414   4.142  0.1364  0.1314 -0.2856
 2477SOL     OW 9905   1.593   0.518   4.218 -0.0734  0.2467 -0.1986
 2477SOL    HW2 9906   1.562   0.520   4.309  0.3634  0.4736 -0.0546
 2477SOL    HW3 9907   1.603   0.611   4.195  1.6547  0.1542  0.1494
 2477SOL    MW4 9908   1.590   0.531   4.227  0.2122  0.2644 -0.1337
 2478SOL     OW 9909   1.565   0.776   4.131  0.2814  0.1858  0.0292
 2478SOL    HW2 9910   1.644   0.829   4.140  1.2884 -1.0832 -1.0300
 2478SOL    HW3 9911   1.545   0.780   4.037 -0.3212 -0.3037  0.1353
 2478SOL    MW4 9912   1.573   0.784   4.120  0.3348 -0.0462 -0.0966
 2479SOL     OW 9913   1.362   0.928   4.253 -0.2931  0.0553 -0.0487
 2479SOL    HW2 9914   1.371   1.021   4.231  1.7458 -0.0824  0.1118
 2479SOL    HW3 9915   1.443   0.888   4.222  0.5300 -0.9975  3.2430
 2479SOL    MW4 9916   1.374   0.935   4.246  0.0845 -0.1018  0.4067
 2480SOL     OW 9917   1.358   1.210   4.203  0.5787  0.6765  0.2105
 2480SOL    HW2 9918   1.272   1.242   4.229  0.5447  0.5432  0.2649
 2480SOL    HW3 9919   1.361   1.223   4.108  0.7927  1.3797  0.3149
 2480SOL    MW4 9920   1.347   1.216   4.194  0.6024  0.7517  0.2315
 2481SOL     OW 9921   1.577   1.293   4.322 -0.3409  0.2806 -0.3875
 2481SOL    HW2 9922   1.538   1.349   4.389 -1.3958  0.9283 -1.5016
 2481SOL    HW3 9923   1.502   1.245   4.285  0.6211 -2.4547  1.0503
 2481SOL    MW4 9924   1.562   1.294   4.326 -0.3532  0.0052 -0.3448
 2482SOL     OW 9925   1.633   1.514   4.167 -0.0178  0.4159  0.3416
 2482SOL    HW2 9926   1.565   1.581   4.162 -0.5375 -0.1791 -0.7425
 2482SOL    HW3 9927   1.595   1.444   4.220  0.1670  0.5607  0.6671
 2482SOL    MW4 9928   1.619   1.514   4.173 -0.0620  0.3565  0.2415
 2483SOL     OW 9929   1.394   1.687   4.162 -0.3180  0.1104 -0.7678
 2483SOL    HW2 9930   1.386   1.780   4.138 -1.5221  0.4313  0.7831
 2483SOL    HW3 9931   1.304   1.653   4.156  0.1989 -1.1070 -1.8574
 2483SOL    MW4 9932   1.381   1.695   4.158 -0.4086 -0.0079 -0.7069
 2484SOL     OW 9933   1.393   1.966   4.147  0.0219  0.1762 -0.2434
 2484SOL    HW2 9934   1.464   1.983   4.208 -0.5173  0.3029  0.3573
 2484SOL    HW3 9935   1.314   1.989   4.195 -0.4392 -0.1528 -0.8338
 2484SOL    MW4 9936   1.392   1.971   4.161 -0.1101  0.1495 -0.2420
 2485SOL     OW 9937   1.623   2.027   4.295  0.3067 -0.0185  0.2447
 2485SOL    HW2 9938   1.613   2.036   4.390 -0.7305  1.0824  0.0371
 2485SOL    HW3 9939   1.605   2.114   4.260  0.6698 -0.4184 -0.9643
 2485SOL    MW4 9940   1.619   2.039   4.303  0.2177  0.0740  0.0578
 2486SOL     OW 9941   1.575   2.256   4.171  0.0358 -0.4141  0.0194
 2486SOL    HW2 9942   1.658   2.303   4.180 -0.5396  0.4755  0.8547
 2486SOL    HW3 9943   1.556   2.257   4.077  0.9037 -0.5077 -0.1568
 2486SOL    MW4 9944   1.583   2.263   4.160  0.0744 -0.3091  0.1064
 2487SOL     OW 9945   1.390   2.442   4.260  0.3826  0.3774 -0.1716
 2487SOL    HW2 9946   1.398   2.530   4.223 -0.3090  0.3723 -0.3438
 2487SOL    HW3 9947   1.463   2.393   4.223  0.0472  0.5361 -1.0436
 2487SOL    MW4 9948   1.400   2.447   4.250  0.2471  0.3977 -0.3093
 2488SOL     OW 9949   1.368   2.681   4.102 -0.2901  0.6033  0.3292
 2488SOL    HW2 9950   1.442   2.734   4.131  1.1357 -1.0277 -0.2571
 2488SOL    HW3 9951   1.291   2.724   4.140  1.0348  1.7608  1.7468
 2488SOL    MW4 9952   1.367   2.694   4.111  0.0729  0.5408  0.4389
 2489SOL     OW 9953   1.533   2.856   4.261 -0.3551  0.0369 -0.2029
 2489SOL    HW2 9954   1.481   2.846   4.340  0.0823  2.7020  0.4623
 2489SOL    HW3 9955   1.527   2.949   4.239  0.2178 -0.4909 -2.8301
 2489SOL    MW4 9956   1.525   2.867   4.268 -0.2218  0.3189 -0.4618
 2490SOL     OW 9957   1.570   3.108   4.144  0.0988 -0.1046 -0.0536
 2490SOL    HW2 9958   1.620   3.172   4.195 -0.1420 -0.3347  0.4809
 2490SOL    HW3 9959   1.480   3.143   4.143  0.2186  0.1862 -0.8037
 2490SOL    MW4 9960   1.564   3.121   4.151  0.0829 -0.0966 -0.0820
 2491SOL     OW 9961   1.330   3.248   4.172 -0.6237 -0.4007  0.3959
 2491SOL    HW2 9962   1.348   3.266   4.264  0.2398 -1.3423  0.4129
 2491SOL    HW3 9963   1.354   3.329   4.127 -1.6246  0.2772  1.0578
 2491SOL    MW4 9964   1.336   3.261   4.178 -0.6418 -0.4355  0.4854
 2492SOL     OW 9965   1.366   3.510   4.092 -0.2213  0.4248 -0.2321
 2492SOL    HW2 9966   1.280   3.543   4.117 -0.5417 -0.1689 -0.5396
 2492SOL    HW3 9967   1.361   3.499   3.997  0.4378  1.0867 -0.3471
 2492SOL    MW4 9968   1.354   3.513   4.083 -0.1766  0.4338 -0.2879
 2493SOL     OW 9969   1.544   3.633   4.272  0.2272 -0.1567 -0.1094
 2493SOL    HW2 9970   1.553   3.574   4.347  0.0233  0.7020  0.5921
 2493SOL    HW3 9971   1.508   3.578   4.203  0.7018 -1.0313  0.3244
 2493SOL    MW4 9972   1.541   3.618   4.273  0.2629 -0.1588  0.0404
 2494SOL     OW 9973   1.574   3.896   4.223 -0.2667  0.0499 -0.0362
 2494SOL    HW2 9974   1.498   3.950   4.246  0.3143  0.9038 -0.1133
 2494SOL    HW3 9975   1.556   3.812   4.264 -0.6159  0.6675  1.1011
 2494SOL    MW4 9976   1.562   3.892   4.231 -0.2361  0.2441  0.1037
 2495SOL     OW 9977   1.335   4.038   4.282  0.3182 -0.4981 -0.4524
 2495SOL    HW2 9978   1.298   4.051   4.369  0.7750 -0.1084 -0.3136
 2495SOL    HW3 9979   1.354   4.127   4.250  0.5033 -0.6572 -0.7924
 2495SOL    MW4 9980   1.333   4.051   4.289  0.4029 -0.4676 -0.4789
 2496SOL     OW 9981   1.368   4.318   4.190 -0.2011 -0.1904  0.3799
 2496SOL    HW2 9982   1.432   4.384   4.214 -0.3959  0.5257 -0.9891
 2496SOL    HW3 9983   1.365   4.321   4.094  0.1459 -2.5339  0.2785
 2496SOL    MW4 9984   1.376   4.327   4.180 -0.1810 -0.4051  0.1859
 2497SOL     OW 9985   1.594   4.477   4.266 -0.6033 -0.7608  0.2454
 2497SOL    HW2 9986   1.623   4.544   4.205  0.2485 -1.1363  0.2365
 2497SOL    HW3 9987   1.638   4.397   4.238  0.6822 -0.6992  2.0222
 2497SOL    MW4 9988   1.603   4.475   4.255 -0.3213 -0.8022  0.4786
 2498SOL     OW 9989   1.928   4.649   4.240  0.4279 -0.1683 -0.1124
 2498SOL    HW2 9990   1.847   4.676   4.284  1.1255 -1.7757  2.2755
 2498SOL    HW3 9991   1.914   4.672   4.148 -2.7523 -0.4574  0.2242
 2498SOL    MW4 9992   1.915   4.656   4.234  0.1004 -0.4185  0.2471
 2499SOL     OW 9993   2.006   0.393   4.306  0.2029 -0.0072  0.1160
 2499SOL    HW2 9994   2.011   0.319   4.367 -0.7940 -0.8646 -0.8114
 2499SOL    HW3 9995   2.079   0.379   4.246  0.5904  0.2909  0.5173
 2499SOL    MW4 9996   2.016   0.381   4.306  0.1225 -0.0810  0.0466
 2500SOL     OW 9997   1.787   0.293   4.164  0.0597  0.6749  0.0104
 2500SOL    HW2 9998   1.866   0.315   4.213 -1.1953  1.1832  1.8284
 2500SOL    HW3 9999   1.724   0.361   4.187 -0.7195  0.6728 -1.9580
 2500SOL    MW410000   1.789   0.305   4.173 -0.2087  0.7417 -0.0095
 2501SOL     OW10001   1.932   0.632   4.417 -0.1463  0.0387 -0.3225
 2501SOL    HW210002   1.975   0.551   4.389 -0.1888 -0.7796  1.8357
 2501SOL    HW310003   1.858   0.602   4.471 -0.6084  1.4987 -0.1323
 2501SOL    MW410004   1.928   0.617   4.421 -0.2128  0.1234 -0.0126
 2502SOL     OW10005   2.007   0.763   4.189  0.2303 -0.2157  0.4628
 2502SOL    HW210006   1.927   0.815   4.199 -0.0090 -0.4636 -0.1703
 2502SOL    HW310007   2.005   0.702   4.263 -1.3775 -1.8181 -0.8697
 2502SOL    MW410008   1.996   0.762   4.200 -0.0134 -0.4598  0.2035
 2503SOL     OW10009   1.786   0.938   4.203 -0.0689 -0.2274  0.0427
 2503SOL    HW210010   1.790   1.021   4.156  2.5637 -0.3403  0.0178
 2503SOL    HW310011   1.788   0.962   4.295 -0.1020 -0.2425  0.0476
 2503SOL    MW410012   1.787   0.952   4.209  0.2740 -0.2443  0.0401
 2504SOL     OW10013   1.791   1.224   4.109 -0.5117 -0.1245  0.0832
 2504SOL    HW210014   1.877   1.261   4.126 -1.1565  0.3258  2.4597
 2504SOL    HW310015   1.730   1.296   4.124 -1.3071 -0.2959 -2.0932
 2504SOL    MW410016   1.794   1.238   4.113 -0.7017 -0.0877  0.1096
 2505SOL     OW10017   2.037   1.316   4.180  0.1439 -0.0941 -0.5102
 2505SOL    HW210018   2.119   1.268   4.167  1.2697  1.8194 -0.6099
 2505SOL    HW310019   2.058   1.406   4.158 -2.1787  0.3132 -1.1775
 2505SOL    MW410020   2.051   1.321   4.176 -0.0140  0.2121 -0.6114
 2506SOL     OW10021   2.069   1.584   4.104 -0.2237 -0.6129 -0.5830
 2506SOL    HW210022   2.147   1.629   4.138  0.7612 -1.8245 -1.2177
 2506SOL    HW310023   2.077   1.589   4.009 -0.7272 -1.0822 -0.6538
 2506SOL    MW410024   2.081   1.591   4.096 -0.1602 -0.8347 -0.6761
 2507SOL     OW10025   1.868   1.643   4.286  0.5566  0.0187  0.1846
 2507SOL    HW210026   1.927   1.608   4.220 -0.6963  1.2691 -1.6344
 2507SOL    HW310027   1.787   1.593   4.274  0.3388  0.2164  0.8157
 2507SOL    MW410028   1.865   1.632   4.276  0.3625  0.2098  0.0279
 2508SOL     OW10029   1.812   1.880   4.166  0.5065  0.1394 -0.0958
 2508SOL    HW210030   1.816   1.793   4.205  1.6934  0.9948  1.7620
 2508SOL    HW310031   1.743   1.925   4.214 -0.5074  0.0579 -1.4467
 2508SOL    MW410032   1.803   1.875   4.178  0.5293  0.2415 -0.0289
 2509SOL     OW10033   1.976   2.109   4.257  0.4997 -0.3633 -1.1684
 2509SOL    HW210034   2.064   2.075   4.242  0.3962 -0.5075 -1.4638
 2509SOL    HW310035   1.918   2.040   4.224  0.2640 -0.5931 -0.2875
 2509SOL    MW410036   1.980   2.095   4.251  0.4549 -0.4127 -1.0912
 2510SOL     OW10037   2.032   2.355   4.148  0.1962  0.5052 -0.8061
 2510SOL    HW210038   2.026   2.264   4.177 -0.6909  0.2414 -1.8002
 2510SOL    HW310039   2.046   2.350   4.054 -0.1908  1.4008 -0.9191
 2510SOL    MW410040   2.033   2.342   4.139  0.0281  0.5886 -0.9522
 2511SOL     OW10041   1.771   2.438   4.213  0.7179 -0.3068 -0.4217
 2511SOL    HW210042   1.773   2.416   4.307 -0.7505 -1.4634 -0.6469
 2511SOL    HW310043   1.858   2.413   4.181  1.0468 -0.3896  0.5202
 2511SOL    MW410044   1.783   2.432   4.222  0.5676 -0.4703 -0.3271
 2512SOL     OW10045   1.730   2.707   4.150 -0.6265  0.2054  0.3526
 2512SOL    HW210046   1.722   2.618   4.185  0.0865 -0.4185 -1.0045
 2512SOL    HW310047   1.668   2.759   4.201 -1.0551 -1.0760  1.1577
 2512SOL    MW410048   1.721   2.702   4.161 -0.5890 -0.0460  0.2797
 2513SOL     OW10049   1.952   2.833   4.274  0.1301 -0.2466  0.5858
 2513SOL    HW210050   1.922   2.838   4.364 -1.1651 -0.3388  0.1705
 2513SOL    HW310051   1.882   2.788   4.227  0.6733  0.0180 -0.5118
 2513SOL    MW410052   1.939   2.828   4.280  0.0309 -0.2239  0.3862
 2514SOL     OW10053   1.994   3.103   4.158 -0.4075  0.6381 -0.4842
 2514SOL    HW210054   1.974   3.018   4.196 -0.3863  1.1841  0.7695
 2514SOL    HW310055   2.019   3.084   4.068  1.5257 -0.8770  0.3464
 2514SOL    MW410056   1.995   3.089   4.151 -0.1496  0.5102 -0.2092
 2515SOL     OW10057   1.763   3.282   4.231  0.1487 -0.1558  0.0684
 2515SOL    HW210058   1.790   3.372   4.216 -0.2250 -0.0821 -0.1589
 2515SOL    HW310059   1.832   3.229   4.190 -0.0418  0.0319 -0.4900
 2515SOL    MW410060   1.776   3.287   4.223  0.0743 -0.1213 -0.0353
 2516SOL     OW10061   1.793   3.553   4.167  0.1208  0.5497  0.4989
 2516SOL    HW210062   1.712   3.593   4.200 -0.1475 -0.1077  0.6382
 2516SOL    HW310063   1.776   3.540   4.073  0.1410  0.5923  0.4894
 2516SOL    MW410064   1.780   3.557   4.159  0.0880  0.4686  0.5160
 2517SOL     OW10065   2.021   3.619   4.298 -0.0407  0.4902 -0.2957
 2517SOL    HW210066   2.045   3.707   4.272  0.2097  0.2353 -0.9332
 2517SOL    HW310067   1.936   3.604   4.258 -1.1047  1.2396  1.6178
 2517SOL    MW410068   2.013   3.628   4.290 -0.1481  0.5554 -0.1274
 2518SOL     OW10069   2.035   3.885   4.184  0.4096 -0.3549  0.1218
 2518SOL    HW210070   1.949   3.918   4.210  0.2227 -1.2851  0.6839
 2518SOL    HW310071   2.033   3.887   4.088  0.5011  1.5099  0.1332
 2518SOL    MW410072   2.023   3.890   4.175  0.3970 -0.2316  0.1975
 2519SOL     OW10073   1.815   4.004   4.300 -0.0115 -0.0084 -0.6749
 2519SOL    HW210074   1.815   4.090   4.259 -0.1662 -0.8447 -2.4612
 2519SOL    HW310075   1.730   3.966   4.278 -0.2054 -0.3907  0.6393
 2519SOL    MW410076   1.804   4.010   4.292 -0.0575 -0.1692 -0.7372
 2520SOL     OW10077   1.771   4.276   4.177 -0.5629 -0.0556 -0.6961
 2520SOL    HW210078   1.854   4.312   4.208 -0.6838 -1.5194  1.4363
 2520SOL    HW310079   1.781   4.271   4.082  1.3770  0.7839 -0.5634
 2520SOL    MW410080   1.783   4.280   4.168 -0.3229 -0.1379 -0.3972
 2521SOL     OW10081   2.017   4.386   4.248  0.0791  0.5047 -0.2034
 2521SOL    HW210082   2.043   4.380   4.340  0.5037  0.9181 -0.2947
 2521SOL    HW310083   1.978   4.473   4.240 -1.7853 -0.2873  0.0404
 2521SOL    MW410084   2.015   4.397   4.259 -0.1109  0.4547 -0.1833
 2522SOL     OW10085   2.834   0.225   4.352  0.4023  0.5086  0.4914
 2522SOL    HW210086   2.781   0.282   4.296  1.4992  1.8741  0.7972
 2522SOL    HW310087   2.862   0.154   4.294  0.1549  1.0256 -0.2774
 2522SOL    MW410088   2.831   0.223   4.337  0.5144  0.7570  0.4303
 2523SOL     OW10089   2.457   4.414   4.143  0.3217  0.0119 -0.3625
 2523SOL    HW210090   2.539   4.364   4.137  1.0756  1.0532  0.9120
 2523SOL    HW310091   2.389   4.347   4.149  1.3373 -0.9064  1.5734
 2523SOL    MW410092   2.459   4.398   4.143  0.5552  0.0281  0.0611
 2524SOL     OW10093   2.250   0.339   4.176  0.1942 -0.0678  0.6810
 2524SOL    HW210094   2.304   0.272   4.219  0.1111 -0.2373  0.5249
 2524SOL    HW310095   2.274   0.332   4.083  0.9408  0.8277  0.8050
 2524SOL    MW410096   2.260   0.329   4.169  0.2818  0.0280  0.6768
 2525SOL     OW10097   2.447   0.550   4.165 -0.1788  0.7174 -0.3118
 2525SOL    HW210098   2.453   0.532   4.258  0.4582  0.8439 -0.3269
 2525SOL    HW310099   2.366   0.507   4.137  0.8946 -1.4482 -0.1893
 2525SOL    MW410100   2.437   0.542   4.173  0.0468  0.4484 -0.2977
 2526SOL     OW10101   2.442   0.846   4.053  0.1940  0.1748 -0.1576
 2526SOL    HW210102   2.465   0.761   4.091  0.9343  0.5027  0.1420
 2526SOL    HW310103   2.427   0.827   3.961 -3.5174 -0.9789  0.5954
 2526SOL    MW410104   2.443   0.832   4.046 -0.1980  0.0659 -0.0187
 2527SOL     OW10105   2.243   0.919   4.254 -0.3107  0.3079 -0.0362
 2527SOL    HW210106   2.169   0.859   4.245 -0.9921  1.1980 -0.3930
 2527SOL    HW310107   2.313   0.879   4.202  0.3514 -1.9148  2.4080
 2527SOL    MW410108   2.243   0.906   4.246 -0.3133  0.1321  0.2392
 2528SOL     OW10109   2.272   1.167   4.136  0.0981  0.0920  0.4495
 2528SOL    HW210110   2.358   1.199   4.164  0.1128  0.5902 -0.1503
 2528SOL    HW310111   2.267   1.078   4.171  0.8620  0.0621  0.4953
 2528SOL    MW410112   2.283   1.159   4.144  0.2008  0.1538  0.3764
 2529SOL     OW10113   2.457   1.299   4.302 -0.3432 -0.4038  0.0566
 2529SOL    HW210114   2.435   1.284   4.394 -0.8325 -1.9078 -0.2745
 2529SOL    HW310115   2.548   1.270   4.294 -0.6489 -1.3321 -0.1535
 2529SOL    MW410116   2.466   1.293   4.313 -0.4481 -0.7247 -0.0148
 2530SOL     OW10117   2.456   1.556   4.136 -0.2638 -0.4938  0.1793
 2530SOL    HW210118   2.454   1.467   4.171  0.0873 -0.9467 -0.9387
 2530SOL    HW310119   2.486   1.545   4.046 -1.2949  0.6522 -0.2975
 2530SOL    MW410120   2.460   1.543   4.129 -0.3535 -0.4024 -0.0311
 2531SOL     OW10121   2.272   1.735   4.231  0.3128  0.2041 -0.0195
 2531SOL    HW210122   2.283   1.719   4.325 -0.8766 -0.2222  0.0550
 2531SOL    HW310123   2.333   1.675   4.189  1.3815  0.9034  0.4916
 2531SOL    MW410124   2.282   1.725   4.238  0.2969  0.2401  0.0578
 2532SOL     OW10125   2.235   2.004   4.226 -0.0707  1.1196  0.0045
 2532SOL    HW210126   2.317   2.037   4.262  0.8944 -0.6045 -0.5635
 2532SOL    HW310127   2.246   1.909   4.225 -2.3537  0.8223  0.5829
 2532SOL    MW410128   2.247   1.996   4.231 -0.2446  0.8529  0.0059
 2533SOL     OW10129   2.479   2.090   4.302  0.1410  0.2415  0.2332
 2533SOL    HW210130   2.463   2.053   4.389  0.0206 -1.6242 -0.5632
 2533SOL    HW310131   2.556   2.043   4.270 -0.8626 -0.3538 -1.3826
 2533SOL    MW410132   2.487   2.079   4.309 -0.0073 -0.0832 -0.0851
 2534SOL     OW10133   2.470   2.338   4.194 -0.2983 -0.0281  0.1567
 2534SOL    HW210134   2.469   2.250   4.231 -1.8884  0.2069  0.6910
 2534SOL    HW310135   2.485   2.325   4.101  0.9579 -0.7765  0.4547
 2534SOL    MW410136   2.472   2.325   4.187 -0.3423 -0.0959  0.2665
 2535SOL     OW10137   2.245   2.459   4.303  0.4750  0.1557 -0.2947
 2535SOL    HW210138   2.328   2.416   4.281  0.4310  0.6234 -1.3780
 2535SOL    HW310139   2.180   2.414   4.249 -0.0541 -0.5019  0.8683
 2535SOL    MW410140   2.247   2.447   4.293  0.3994  0.1307 -0.2842
 2536SOL     OW10141   2.205   2.721   4.200 -0.2609 -0.4926 -0.0915
 2536SOL    HW210142   2.213   2.635   4.244  1.4489 -0.7051 -0.7716
 2536SOL    HW310143   2.131   2.763   4.243 -0.9789 -2.2345  0.4119
 2536SOL    MW410144   2.197   2.715   4.212 -0.1300 -0.7504 -0.1148
 2537SOL     OW10145   2.451   2.848   4.244  0.0965 -0.5991 -0.5513
 2537SOL    HW210146   2.451   2.813   4.333 -0.5802  4.5427  1.6786
 2537SOL    HW310147   2.360   2.841   4.215 -0.5958  1.5438  0.9431
 2537SOL    MW410148   2.439   2.843   4.252 -0.0841  0.3620 -0.0599
 2538SOL     OW10149   2.483   3.125   4.191 -0.0812 -0.3842 -0.1958
 2538SOL    HW210150   2.403   3.174   4.212  0.1064 -0.5164  0.8444
 2538SOL    HW310151   2.473   3.042   4.237  1.4367  0.2827  1.3860
 2538SOL    MW410152   2.471   3.121   4.200  0.1438 -0.3137  0.1501
 2539SOL     OW10153   2.224   3.194   4.280 -0.1299  0.3181 -0.4327
 2539SOL    HW210154   2.222   3.286   4.253 -1.2785  0.8487  1.3865
 2539SOL    HW310155   2.142   3.158   4.246  0.7437 -0.2817 -1.9384
 2539SOL    MW410156   2.213   3.201   4.272 -0.1662  0.3090 -0.3913
 2540SOL     OW10157   2.226   3.463   4.213 -0.6623 -0.1603  0.3585
 2540SOL    HW210158   2.295   3.511   4.259 -0.4953  0.1852 -0.2410
 2540SOL    HW310159   2.144   3.498   4.248 -0.5367 -0.1059  0.5979
 2540SOL    MW410160   2.225   3.474   4.224 -0.6237 -0.1076  0.3110
 2541SOL     OW10161   2.441   3.615   4.310  0.4193  0.4248 -0.1498
 2541SOL    HW210162   2.452   3.622   4.405  0.9983  1.5087 -0.2979
 2541SOL    HW310163   2.464   3.701   4.276  0.8124 -0.1369 -1.3346
 2541SOL    MW410164   2.445   3.627   4.318  0.5476  0.4937 -0.3257
 2542SOL     OW10165   2.476   3.885   4.184 -0.6739  0.3863  0.0152
 2542SOL    HW210166   2.556   3.932   4.208  0.6775 -0.8868 -1.8259
 2542SOL    HW310167   2.470   3.895   4.089 -0.9415 -2.1683 -0.2771
 2542SOL    MW410168   2.486   3.892   4.175 -0.5309 -0.1187 -0.2663
 2543SOL     OW10169   2.250   4.016   4.297 -0.4089 -0.3359 -0.1418
 2543SOL    HW210170   2.326   3.977   4.253 -0.7794  2.8099 -3.7496
 2543SOL    HW310171   2.175   3.966   4.266 -0.4707  0.7591 -1.8426
 2543SOL    MW410172   2.250   4.004   4.287 -0.4659  0.2236 -0.8422
 2544SOL     OW10173   2.244   4.236   4.152  0.1636  0.4094  0.4127
 2544SOL    HW210174   2.265   4.172   4.220  0.3159  0.0844  0.0602
 2544SOL    HW310175   2.161   4.275   4.181 -0.6072 -0.8767 -0.0365
 2544SOL    MW410176   2.236   4.233   4.165  0.0820  0.1969  0.3069
 2545SOL     OW10177   2.050   0.470   4.713 -0.6410  0.2014 -0.3214
 2545SOL    HW210178   2.054   0.375   4.716 -0.4443  0.1800 -1.2787
 2545SOL    HW310179   2.129   0.497   4.667 -0.5971  0.8361  0.1212
 2545SOL    MW410180   2.061   0.461   4.707 -0.6093  0.2823 -0.3893
 2546SOL     OW10181   2.899   0.011   4.184 -0.0998 -0.0295 -0.0697
 2546SOL    HW210182   2.983   0.056   4.176  0.1239 -0.7018 -1.6866
 2546SOL    HW310183   2.922  -0.079   4.207 -0.4574  0.1884  1.1606
 2546SOL    MW410184   2.913   0.005   4.186 -0.1175 -0.0895 -0.1207
 2547SOL     OW10185   2.742   0.168   4.629  0.0004 -0.1853 -0.0607
 2547SOL    HW210186   2.745   0.073   4.633 -1.1960 -0.3428 -1.9011
 2547SOL    HW310187   2.783   0.190   4.545  1.1075  0.9845  0.7737
 2547SOL    MW410188   2.748   0.159   4.619 -0.0114 -0.0518 -0.1934
 2548SOL     OW10189   2.662   0.361   4.158 -0.3278 -0.6634 -0.1302
 2548SOL    HW210190   2.594   0.427   4.151 -0.2093 -0.7218 -2.4879
 2548SOL    HW310191   2.695   0.352   4.068  1.5868 -1.8732  0.6640
 2548SOL    MW410192   2.658   0.368   4.145 -0.0595 -0.8307 -0.3365
 2549SOL     OW10193   2.878   0.538   4.248  0.3619  0.4981  0.2370
 2549SOL    HW210194   2.875   0.628   4.218 -0.1526  0.2877 -0.3604
 2549SOL    HW310195   2.794   0.500   4.221  0.6636 -0.2213  0.2736
 2549SOL    MW410196   2.867   0.545   4.241  0.3338  0.3754  0.1630
 2550SOL     OW10197   2.898   0.797   4.135  0.2811 -0.1610 -0.0831
 2550SOL    HW210198   2.980   0.835   4.165 -0.4826  2.1688 -0.7697
 2550SOL    HW310199   2.914   0.774   4.044  0.3649 -0.2897 -0.0356
 2550SOL    MW410200   2.911   0.799   4.127  0.1914  0.1294 -0.1674
 2551SOL     OW10201   2.675   0.959   4.168 -0.1326 -0.2488  0.3822
 2551SOL    HW210202   2.728   0.891   4.128 -0.8918 -0.8876  0.4574
 2551SOL    HW310203   2.587   0.943   4.136  0.1100  2.3121 -1.7521
 2551SOL    MW410204   2.671   0.948   4.159 -0.2007  0.0048  0.1105
 2552SOL     OW10205   2.710   1.225   4.172  0.3497  0.3614  0.2225
 2552SOL    HW210206   2.697   1.131   4.190 -0.8238  0.4858  0.0490
 2552SOL    HW310207   2.706   1.232   4.077  0.1065  0.6315  0.2518
 2552SOL    MW410208   2.708   1.213   4.162  0.1627  0.4134  0.2035
 2553SOL     OW10209   2.947   1.281   4.287  0.1270 -0.2386 -0.2080
 2553SOL    HW210210   3.008   1.210   4.268 -0.6707 -0.7952 -0.6950
 2553SOL    HW310211   2.866   1.256   4.243 -0.3302  0.7012  0.0852
 2553SOL    MW410212   2.944   1.268   4.279 -0.0386 -0.1880 -0.2336
 2554SOL     OW10213   2.903   1.527   4.181  0.1000  0.2791 -0.1210
 2554SOL    HW210214   2.976   1.581   4.211 -0.9548  1.4829  0.3233
 2554SOL    HW310215   2.923   1.439   4.212  1.6241  0.4987 -0.4759
 2554SOL    MW410216   2.915   1.522   4.189  0.1619  0.4669 -0.1092
 2555SOL     OW10217   2.685   1.664   4.285 -0.1888  0.2229 -0.2272
 2555SOL    HW210218   2.760   1.615   4.252 -0.2291 -0.2751  0.4022
 2555SOL    HW310219   2.610   1.630   4.237 -0.0160  0.7413 -0.8772
 2555SOL    MW410220   2.685   1.653   4.274 -0.1713  0.2256 -0.2299
 2556SOL     OW10221   2.680   1.935   4.189 -0.6884  0.0860 -0.3765
 2556SOL    HW210222   2.667   1.848   4.225 -2.8422  0.4753 -0.1210
 2556SOL    HW310223   2.693   1.921   4.095 -1.5742 -0.4809 -0.4204
 2556SOL    MW410224   2.680   1.922   4.181 -1.0894  0.0626 -0.3486
 2557SOL     OW10225   2.925   2.030   4.280  0.0892 -1.1344 -0.1635
 2557SOL    HW210226   2.917   2.122   4.256  1.2763 -1.1316 -0.6048
 2557SOL    HW310227   2.844   1.989   4.249  0.5492 -0.6690 -2.0072
 2557SOL    MW410228   2.913   2.037   4.273  0.3065 -1.0726 -0.4650
 2558SOL     OW10229   2.907   2.328   4.209  0.2300  0.2100 -0.3388
 2558SOL    HW210230   2.982   2.355   4.262 -1.3447  1.0941  1.4776
 2558SOL    HW310231   2.834   2.380   4.242 -2.0354 -3.3392  0.5431
 2558SOL    MW410232   2.907   2.338   4.220 -0.2767 -0.1416  0.0172
 2559SOL     OW10233   2.675   2.475   4.342 -0.1777  0.2397 -0.3899
 2559SOL    HW210234   2.612   2.499   4.410 -0.5618 -0.0317 -0.6438
 2559SOL    HW310235   2.635   2.400   4.298  1.0375 -0.9229  0.4424
 2559SOL    MW410236   2.662   2.468   4.345 -0.0681  0.0505 -0.3136
 2560SOL     OW10237   2.668   2.702   4.180  0.4209  0.3197  0.3337
 2560SOL    HW210238   2.661   2.619   4.225 -0.8553 -0.3216 -1.0052
 2560SOL    HW310239   2.587   2.749   4.201  0.8162  0.9307  0.5153
 2560SOL    MW410240   2.656   2.697   4.188  0.3047  0.3157  0.1810
 2561SOL     OW10241   2.891   2.863   4.208  0.0827 -0.0585  0.0862
 2561SOL    HW210242   2.915   2.882   4.299 -1.1238  0.6900  0.2618
 2561SOL    HW310243   2.805   2.820   4.215  0.6210 -1.2616 -0.6108
 2561SOL    MW410244   2.883   2.860   4.221 -0.0054 -0.1185  0.0174
 2562SOL     OW10245   2.934   3.105   4.109  0.2931 -0.2353 -0.5233
 2562SOL    HW210246   2.923   3.014   4.136 -0.9785  0.0579 -0.0627
 2562SOL    HW310247   2.916   3.105   4.015  0.2364 -0.4419 -0.5108
 2562SOL    MW410248   2.930   3.093   4.100  0.1178 -0.2238 -0.4609
 2563SOL     OW10249   2.724   3.251   4.228  0.5613 -0.6244  0.3153
 2563SOL    HW210250   2.791   3.207   4.175 -1.3434 -1.1437 -1.7488
 2563SOL    HW310251   2.642   3.209   4.203 -0.8174  1.4007  1.2468
 2563SOL    MW410252   2.722   3.240   4.218  0.1281 -0.4257  0.1659
 2564SOL     OW10253   2.673   3.506   4.162 -0.0374 -0.3345 -0.0619
 2564SOL    HW210254   2.685   3.412   4.176 -1.5910 -0.6358 -0.6578
 2564SOL    HW310255   2.582   3.523   4.189 -0.3022  0.6780 -1.5356
 2564SOL    MW410256   2.662   3.496   4.168 -0.2773 -0.2407 -0.3350
 2565SOL     OW10257   2.912   3.637   4.242  0.0841  0.1981  0.2111
 2565SOL    HW210258   2.912   3.664   4.334  0.8344  1.2609 -0.1005
 2565SOL    HW310259   2.833   3.583   4.233  0.5847 -0.8375  1.7426
 2565SOL    MW410260   2.901   3.633   4.253  0.2491  0.2017  0.3721
 2566SOL     OW10261   2.943   3.882   4.130 -0.2072  0.5799  0.3563
 2566SOL    HW210262   2.997   3.931   4.191 -1.2281  0.5138  1.3220
 2566SOL    HW310263   2.932   3.796   4.171 -2.5569  1.1933  1.0618
 2566SOL    MW410264   2.949   3.877   4.143 -0.6519  0.6521  0.5768
 2567SOL     OW10265   2.722   4.016   4.229  0.3843  0.4527 -0.1446
 2567SOL    HW210266   2.724   4.099   4.182  0.0518 -0.1921 -1.3262
 2567SOL    HW310267   2.803   3.972   4.203  0.3442  0.2282  0.1118
 2567SOL    MW410268   2.733   4.021   4.219  0.3351  0.3380 -0.2666
 2568SOL     OW10269   2.692   4.284   4.134 -0.0510 -0.0717  0.3109
 2568SOL    HW210270   2.760   4.332   4.181  0.3704 -0.5804  0.2264
 2568SOL    HW310271   2.712   4.298   4.042  0.3098 -0.7345  0.2844
 2568SOL    MW410272   2.704   4.292   4.128  0.0522 -0.2263  0.2962
 2569SOL     OW10273   2.921   4.418   4.261  0.3287  0.1443  0.2778
 2569SOL    HW210274   2.915   4.396   4.354  0.1037  0.3041  0.3018
 2569SOL    HW310275   2.990   4.361   4.227 -0.3515 -0.7129  0.3052
 2569SOL    MW410276   2.930   4.408   4.269  0.2092  0.0523  0.2846
 2570SOL     OW10277   3.369   0.010   4.157  0.1414 -0.3131 -0.0671
 2570SOL    HW210278   3.463   0.019   4.172 -0.1847  0.2434  1.6934
 2570SOL    HW310279   3.352  -0.084   4.168  0.5111 -0.4457 -0.5873
 2570SOL    MW410280   3.380  -0.001   4.160  0.1472 -0.2572  0.0965
 2571SOL     OW10281   3.146   0.155   4.247  0.8232  0.2653 -0.1382
 2571SOL    HW210282   3.138   0.144   4.342  1.4912  1.9693  0.1423
 2571SOL    HW310283   3.227   0.110   4.224  1.3105  0.8823  0.3185
 2571SOL    MW410284   3.156   0.148   4.256  0.9756  0.5715 -0.0409
 2572SOL     OW10285   3.116   0.413   4.110 -0.0297  0.2331 -0.3597
 2572SOL    HW210286   3.112   0.330   4.158 -2.3789  0.2732 -0.3831
 2572SOL    HW310287   3.043   0.464   4.145  1.2735  2.2134 -0.5028
 2572SOL    MW410288   3.106   0.409   4.121 -0.1677  0.4996 -0.3817
 2573SOL     OW10289   3.371   0.510   4.182  0.3189 -0.1329  0.0632
 2573SOL    HW210290   3.447   0.451   4.177  0.2731 -0.1692 -0.2012
 2573SOL    HW310291   3.303   0.465   4.133 -0.4716 -1.0099  1.9170
 2573SOL    MW410292   3.372   0.496   4.175  0.2086 -0.2534  0.2729
 2574SOL     OW10293   3.366   0.775   4.060 -0.4171 -0.2493 -0.2457
 2574SOL    HW210294   3.288   0.822   4.092 -0.0616 -0.3029  0.7084
 2574SOL    HW310295   3.362   0.690   4.103 -0.2368 -0.5282 -0.7860
 2574SOL    MW410296   3.355   0.770   4.070 -0.3464 -0.2932 -0.1911
 2575SOL     OW10297   3.156   0.878   4.204 -0.1147  0.5020  0.0651
 2575SOL    HW210298   3.182   0.884   4.296 -0.7788 -0.7164  0.3477
 2575SOL    HW310299   3.143   0.968   4.176 -1.0746  0.8153  1.5140
 2575SOL    MW410300   3.158   0.890   4.212 -0.3290  0.3826  0.2936
 2576SOL     OW10301   3.133   1.137   4.137  0.1460  0.1639  0.4632
 2576SOL    HW210302   3.226   1.161   4.138 -0.4956  3.0268 -0.8733
 2576SOL    HW310303   3.113   1.126   4.044 -1.2519  1.3593  0.6150
 2576SOL    MW410304   3.143   1.139   4.125 -0.1231  0.6994  0.3069
 2577SOL     OW10305   3.378   1.234   4.211 -0.1007  0.1397  0.0575
 2577SOL    HW210306   3.365   1.201   4.300  3.0177  0.2731  0.6080
 2577SOL    HW310307   3.344   1.324   4.214 -1.2466 -0.3011  0.7249
 2577SOL    MW410308   3.372   1.242   4.223  0.1596  0.0992  0.2181
 2578SOL     OW10309   3.345   1.519   4.182  0.5026  0.0722 -0.6249
 2578SOL    HW210310   3.267   1.561   4.217  2.0166  1.9368  0.6492
 2578SOL    HW310311   3.339   1.531   4.088 -0.1690  1.2115 -0.4422
 2578SOL    MW410312   3.334   1.526   4.174  0.6137  0.4685 -0.4327
 2579SOL     OW10313   3.146   1.670   4.266  0.0691  0.3469  0.4225
 2579SOL    HW210314   3.159   1.683   4.360  0.1485 -0.9123  0.6006
 2579SOL    HW310315   3.144   1.758   4.229 -1.7330  0.9219  1.8407
 2579SOL    MW410316   3.148   1.683   4.274 -0.1582  0.2566  0.6331
 2580SOL     OW10317   3.145   1.922   4.140  0.3729 -0.0078  0.7326
 2580SOL    HW210318   3.223   1.974   4.157  0.4727 -0.1520  0.7166
 2580SOL    HW310319   3.076   1.964   4.191  0.5624 -0.1543  1.1108
 2580SOL    MW410320   3.146   1.934   4.149  0.4111 -0.0462  0.7804
 2581SOL     OW10321   3.384   2.042   4.214  0.2323 -0.0449  0.1713
 2581SOL    HW210322   3.477   2.021   4.201  0.5477 -0.2912  2.6263
 2581SOL    HW310323   3.381   2.137   4.219  0.4669 -0.0808  0.9635
 2581SOL    MW410324   3.396   2.051   4.213  0.3049 -0.0821  0.5997
 2582SOL     OW10325   3.361   2.324   4.213 -0.3960  0.2397  0.4147
 2582SOL    HW210326   3.439   2.378   4.228 -0.3650 -0.0250  1.2310
 2582SOL    HW310327   3.358   2.312   4.118  0.2064  0.7749  0.3271
 2582SOL    MW410328   3.371   2.329   4.202 -0.3124  0.2754  0.5108
 2583SOL     OW10329   3.138   2.464   4.302  0.1815  0.0008  0.2302
 2583SOL    HW210330   3.141   2.546   4.253 -0.3980  0.8943  1.6482
 2583SOL    HW310331   3.213   2.413   4.269 -0.0593  0.6628 -1.3824
 2583SOL    MW410332   3.148   2.468   4.291  0.0733  0.2060  0.2045
 2584SOL     OW10333   3.084   2.703   4.136  0.2053  0.1589  0.4659
 2584SOL    HW210334   3.156   2.755   4.172  0.6545 -0.8969  1.1052
 2584SOL    HW310335   3.008   2.760   4.144  0.7007  0.7451  1.1259
 2584SOL    MW410336   3.084   2.717   4.142  0.3299  0.0970  0.6373
 2585SOL     OW10337   3.329   2.824   4.216 -0.2252 -0.4068 -0.1337
 2585SOL    HW210338   3.400   2.775   4.174  0.3063  0.5158 -0.3378
 2585SOL    HW310339   3.339   2.913   4.182 -2.1670 -0.5028 -1.0482
 2585SOL    MW410340   3.340   2.830   4.206 -0.4113 -0.2977 -0.2813
 2586SOL     OW10341   3.378   3.104   4.141  0.5661 -0.1652 -0.1175
 2586SOL    HW210342   3.300   3.153   4.168  0.2254 -1.1011  0.6300
 2586SOL    HW310343   3.382   3.116   4.046  0.0443  0.6595 -0.0447
 2586SOL    MW410344   3.368   3.112   4.132  0.4523 -0.1799 -0.0093
 2587SOL     OW10345   3.145   3.217   4.229  0.0031 -0.3375  0.3050
 2587SOL    HW210346   3.129   3.311   4.229 -0.4136 -0.4015  1.9742
 2587SOL    HW310347   3.070   3.180   4.182 -0.5638  0.0462  0.9036
 2587SOL    MW410348   3.133   3.224   4.223 -0.1267 -0.2953  0.6042
 2588SOL     OW10349   3.134   3.490   4.183 -0.1006 -0.1335  0.0499
 2588SOL    HW210350   3.052   3.529   4.213 -1.1624 -1.6958 -0.7350
 2588SOL    HW310351   3.127   3.488   4.088  1.3090  0.6754 -0.0804
 2588SOL    MW410352   3.122   3.495   4.175 -0.0547 -0.2329 -0.0709
 2589SOL     OW10353   3.393   3.621   4.185  0.0060  0.0877 -0.1697
 2589SOL    HW210354   3.460   3.554   4.173 -1.2166 -1.1427 -0.2093
 2589SOL    HW310355   3.311   3.572   4.195 -0.9592  1.5866 -0.6045
 2589SOL    MW410356   3.391   3.606   4.185 -0.2826  0.1231 -0.2323
 2590SOL     OW10357   3.366   3.887   4.112 -0.5935 -0.1773  0.4300
 2590SOL    HW210358   3.387   3.798   4.140  4.7149  0.6105 -0.4681
 2590SOL    HW310359   3.378   3.886   4.017 -0.7126  1.4375  0.3838
 2590SOL    MW410360   3.371   3.875   4.103  0.0912  0.1397  0.3054
 2591SOL     OW10361   3.155   4.003   4.282  0.4137  0.0051 -0.1866
 2591SOL    HW210362   3.187   4.003   4.373  0.3758 -1.0522 -0.1719
 2591SOL    HW310363   3.232   3.978   4.230  0.0666 -0.8084 -0.3120
 2591SOL    MW410364   3.169   4.000   4.287  0.3629 -0.2417 -0.2012
 2592SOL     OW10365   3.129   4.259   4.166  0.1164 -0.2355  0.1718
 2592SOL    HW210366   3.207   4.311   4.185  0.9537 -1.3906 -0.0532
 2592SOL    HW310367   3.147   4.174   4.205 -0.9496 -0.5756 -0.0629
 2592SOL    MW410368   3.142   4.255   4.174  0.0862 -0.4328  0.1112
 2593SOL     OW10369   3.355   4.404   4.186  0.1702  0.0318 -0.2162
 2593SOL    HW210370   3.365   4.434   4.276  1.6435  1.2043 -0.7450
 2593SOL    HW310371   3.437   4.359   4.166 -0.4481 -0.8972 -0.7442
 2593SOL    MW410372   3.367   4.402   4.195  0.2830  0.0639 -0.3556
 2594SOL     OW10373   3.821   4.607   4.115  0.2249 -0.2085 -0.2339
 2594SOL    HW210374   3.895   4.667   4.120 -0.6829  1.0121 -0.8469
 2594SOL    HW310375   3.797   4.606   4.022  1.0547 -2.5818 -0.4542
 2594SOL    MW410376   3.827   4.615   4.103  0.2146 -0.3606 -0.3439
 2595SOL     OW10377   3.621   0.077   4.240  0.0660 -0.0310 -0.9997
 2595SOL    HW210378   3.616   0.165   4.203  2.7144  0.9877  0.9579
 2595SOL    HW310379   3.690   0.034   4.190  1.5641  0.3609  0.6882
 2595SOL    MW410380   3.629   0.083   4.228  0.6131  0.1551 -0.5187
 2596SOL     OW10381   3.577   0.332   4.132  0.5431  0.2119  0.2947
 2596SOL    HW210382   3.654   0.382   4.159  1.4706 -0.2559 -1.3952
 2596SOL    HW310383   3.576   0.338   4.036 -2.1064  1.0328  0.3392
 2596SOL    MW410384   3.587   0.339   4.123  0.3159  0.2585  0.0776
 2597SOL     OW10385   3.821   0.738   4.140  0.3573 -0.0580 -0.3699
 2597SOL    HW210386   3.755   0.807   4.145  1.0994  0.5784  0.8896
 2597SOL    HW310387   3.834   0.725   4.046 -1.0945  0.2385 -0.6370
 2597SOL    MW410388   3.814   0.746   4.128  0.2637  0.0651 -0.2390
 2598SOL     OW10389   3.603   1.147   4.100 -0.7222 -0.1883  0.0012
 2598SOL    HW210390   3.521   1.179   4.138 -0.5276  0.0303  0.2369
 2598SOL    HW310391   3.593   1.163   4.006 -0.6855  0.4404  0.0990
 2598SOL    MW410392   3.591   1.153   4.093 -0.6917 -0.0765  0.0452
 2599SOL     OW10393   3.605   0.892   4.199 -0.3268 -0.3131  0.2041
 2599SOL    HW210394   3.612   0.986   4.181  0.0679 -0.4236 -0.2502
 2599SOL    HW310395   3.539   0.861   4.138  0.7492 -0.6238 -0.8268
 2599SOL    MW410396   3.597   0.900   4.189 -0.1328 -0.3687  0.0082
 2600SOL     OW10397   3.932   1.534   4.578  0.2957 -0.3501 -0.2533
 2600SOL    HW210398   3.961   1.476   4.648  0.3093 -2.5312 -1.9902
 2600SOL    HW310399   4.012   1.575   4.545  0.4463 -0.3503  0.1215
 2600SOL    MW410400   3.946   1.532   4.583  0.3174 -0.6379 -0.4330
 2601SOL     OW10401   3.865   1.230   4.081  0.4937  0.4032 -0.2528
 2601SOL    HW210402   3.783   1.181   4.078  0.7169 -0.0139  0.3022
 2601SOL    HW310403   3.840   1.318   4.110  0.2385  0.2918 -0.1388
 2601SOL    MW410404   3.851   1.236   4.084  0.4895  0.3334 -0.1645
 2602SOL     OW10405   3.803   1.523   4.130  0.4800 -0.1369  0.1453
 2602SOL    HW210406   3.876   1.563   4.178 -0.0648  1.6187 -0.4199
 2602SOL    HW310407   3.725   1.561   4.170  0.0063  1.2637 -2.0064
 2602SOL    MW410408   3.802   1.534   4.142  0.3456  0.2796 -0.2131
 2603SOL     OW10409   3.597   1.637   4.282  0.3570  0.2026  0.1786
 2603SOL    HW210410   3.622   1.584   4.358  0.8871 -0.4438 -0.4380
 2603SOL    HW310411   3.520   1.592   4.247  0.5834  0.0420 -0.1220
 2603SOL    MW410412   3.590   1.624   4.287  0.4568  0.0961  0.0576
 2604SOL     OW10413   3.619   1.904   4.161  0.6266  0.1097  0.0578
 2604SOL    HW210414   3.615   1.819   4.205  1.7592 -0.2424 -0.4781
 2604SOL    HW310415   3.634   1.882   4.069 -0.2710  0.8675 -0.2756
 2604SOL    MW410416   3.621   1.890   4.154  0.6576  0.1632 -0.0569
 2605SOL     OW10417   3.849   2.047   4.251  0.2464 -0.3977 -0.4933
 2605SOL    HW210418   3.855   2.029   4.345 -1.7496  4.0858  0.6169
 2605SOL    HW310419   3.766   2.009   4.224 -0.3595  0.4873  0.1208
 2605SOL    MW410420   3.839   2.040   4.260 -0.0969  0.3106 -0.2658
 2606SOL     OW10421   3.834   2.316   4.174 -0.0408 -0.2357 -0.3933
 2606SOL    HW210422   3.839   2.229   4.214  0.1502 -0.3351 -0.6302
 2606SOL    HW310423   3.839   2.300   4.080  2.7236  0.1989 -0.3691
 2606SOL    MW410424   3.836   2.303   4.167  0.3491 -0.1914 -0.4214
 2607SOL     OW10425   3.600   2.451   4.259  0.3350 -0.3533 -0.2655
 2607SOL    HW210426   3.600   2.447   4.355 -0.3142  1.0206 -0.1976
 2607SOL    HW310427   3.684   2.412   4.234  0.5576 -0.6269  0.8678
 2607SOL    MW410428   3.611   2.445   4.268  0.2787 -0.2081 -0.1070
 2608SOL     OW10429   3.562   2.713   4.146 -0.2439 -0.3551 -0.3796
 2608SOL    HW210430   3.576   2.625   4.182 -1.7080 -0.3738  0.1527
 2608SOL    HW310431   3.578   2.703   4.052 -0.5541 -1.2253 -0.3440
 2608SOL    MW410432   3.566   2.700   4.138 -0.4780 -0.4724 -0.3047
 2609SOL     OW10433   3.820   2.798   4.235  0.1124 -0.1780  0.3226
 2609SOL    HW210434   3.804   2.760   4.321  0.9572 -0.2090  0.4684
 2609SOL    HW310435   3.735   2.795   4.191  0.0996 -1.9958  0.4308
 2609SOL    MW410436   3.807   2.792   4.240  0.2221 -0.4219  0.3561
 2610SOL     OW10437   3.823   3.074   4.155 -0.0952  0.1135 -0.2751
 2610SOL    HW210438   3.826   2.981   4.178  0.9343  0.1468 -0.2722
 2610SOL    HW310439   3.816   3.074   4.059  0.0767  0.0336 -0.2885
 2610SOL    MW410440   3.822   3.062   4.145  0.0633  0.1074 -0.2765
 2611SOL     OW10441   3.604   3.192   4.280 -0.2841  0.2223  0.4371
 2611SOL    HW210442   3.676   3.145   4.237 -0.2554 -0.1379  0.8718
 2611SOL    HW310443   3.525   3.158   4.237 -0.1008  2.0139 -1.3684
 2611SOL    MW410444   3.603   3.181   4.269 -0.2561  0.4112  0.2563
 2612SOL     OW10445   3.610   3.440   4.106 -0.1455 -0.0939  0.1758
 2612SOL    HW210446   3.678   3.498   4.142  1.0582 -0.5391 -1.3093
 2612SOL    HW310447   3.612   3.363   4.162 -0.7015  0.6496  1.2435
 2612SOL    MW410448   3.619   3.438   4.118 -0.0601 -0.0546  0.1207
 2613SOL     OW10449   3.405   3.647   4.458  0.2461  0.4653 -0.2433
 2613SOL    HW210450   3.404   3.558   4.494 -0.6850  0.4659 -0.2500
 2613SOL    HW310451   3.382   3.635   4.366  1.7049  0.5598 -0.6355
 2613SOL    MW410452   3.402   3.633   4.450  0.3157  0.4779 -0.2959
 2614SOL     OW10453   3.816   3.871   4.170 -0.0763 -0.2874 -0.0581
 2614SOL    HW210454   3.734   3.901   4.209  0.7394 -1.0425  2.3136
 2614SOL    HW310455   3.818   3.777   4.187  2.0578 -0.0058  1.4143
 2614SOL    MW410456   3.805   3.863   4.177  0.3129 -0.3499  0.4491
 2615SOL     OW10457   3.574   3.998   4.241  0.0798 -0.1237  0.9706
 2615SOL    HW210458   3.540   4.013   4.329  0.1952  0.0360  0.9887
 2615SOL    HW310459   3.509   3.941   4.199 -0.3167  0.3644  0.9243
 2615SOL    MW410460   3.561   3.992   4.248  0.0427 -0.0383  0.9669
 2616SOL     OW10461   3.594   4.266   4.151  0.0950  0.0924 -0.0871
 2616SOL    HW210462   3.679   4.294   4.186  0.0083  0.0699  0.1363
 2616SOL    HW310463   3.595   4.171   4.159 -1.0091  0.2472  2.3109
 2616SOL    MW410464   3.606   4.257   4.156 -0.0621  0.1099  0.2588
 2617SOL     OW10465   3.818   4.388   4.260  0.4144 -0.1889 -0.1167
 2617SOL    HW210466   3.904   4.347   4.258  0.6089  0.1928  0.3473
 2617SOL    HW310467   3.830   4.471   4.215  0.8575  0.9338  2.0451
 2617SOL    MW410468   3.831   4.393   4.254  0.4985  0.0096  0.2298
 2618SOL     OW10469   4.257   4.587   4.186  0.1567  0.1903 -0.2251
 2618SOL    HW210470   4.272   4.503   4.228  0.1408  0.7438  0.8905
 2618SOL    HW310471   4.329   4.643   4.216  0.4563  0.4339 -1.3612
 2618SOL    MW410472   4.269   4.583   4.195  0.1941  0.2954 -0.2278
 2619SOL     OW10473   3.912   0.113   4.843 -0.2973 -0.1072  0.0787
 2619SOL    HW210474   3.960   0.171   4.903 -0.2115 -0.8543  0.7492
 2619SOL    HW310475   3.829   0.096   4.889 -0.0572 -1.0166  0.1734
 2619SOL    MW410476   3.907   0.119   4.857 -0.2543 -0.3258  0.1797
 2620SOL     OW10477   4.038   0.085   4.214  0.0342 -0.1891 -0.1214
 2620SOL    HW210478   4.114   0.033   4.188 -0.4335  0.0268 -1.9685
 2620SOL    HW310479   4.032   0.074   4.309  1.7432 -1.0496 -0.1094
 2620SOL    MW410480   4.047   0.077   4.223  0.1980 -0.2741 -0.3635
 2621SOL     OW10481   4.062   0.339   4.130  0.2095 -0.9012  0.2581
 2621SOL    HW210482   4.055   0.248   4.157  2.0066 -0.8121  1.1158
 2621SOL    HW310483   4.120   0.379   4.195 -0.9843  0.9789  0.1992
 2621SOL    MW410484   4.069   0.332   4.142  0.2891 -0.6414  0.3635
 2622SOL     OW10485   4.264   0.718   4.217  0.2649  0.3532 -0.0214
 2622SOL    HW210486   4.182   0.764   4.236  0.2182  0.0237  0.5599
 2622SOL    HW310487   4.287   0.747   4.128 -0.4186  0.5365 -0.1415
 2622SOL    MW410488   4.256   0.728   4.208  0.1685  0.3339  0.0394
 2623SOL     OW10489   4.023   0.844   4.295  0.8912 -0.1005  0.0013
 2623SOL    HW210490   4.017   0.939   4.282  0.1265 -0.2640 -0.9154
 2623SOL    HW310491   3.968   0.807   4.226 -0.1157 -1.1648  1.3550
 2623SOL    MW410492   4.015   0.852   4.284  0.6574 -0.2625  0.0590
 2624SOL     OW10493   4.267   1.228   4.241 -0.2715 -0.0807  0.0515
 2624SOL    HW210494   4.346   1.177   4.219  0.8833  1.3880  0.6999
 2624SOL    HW310495   4.203   1.162   4.268  0.8797 -1.2723 -0.0560
 2624SOL    MW410496   4.269   1.213   4.242  0.0328 -0.0441  0.1229
 2625SOL     OW10497   4.227   1.579   4.603 -0.3060  0.0899 -0.5046
 2625SOL    HW210498   4.255   1.506   4.548 -0.3030  0.7914 -1.4437
 2625SOL    HW310499   4.217   1.541   4.690  1.0447 -0.7416 -0.6947
 2625SOL    MW410500   4.230   1.565   4.607 -0.1274  0.0728 -0.6536
 2626SOL     OW10501   4.246   1.505   4.191 -0.5231  0.4206  0.0718
 2626SOL    HW210502   4.233   1.412   4.210 -0.1682  0.2211 -0.6593
 2626SOL    HW310503   4.264   1.508   4.097 -0.1532  1.1942  0.1667
 2626SOL    MW410504   4.246   1.493   4.181 -0.4275  0.4963 -0.0121
 2627SOL     OW10505   4.031   1.668   4.292  0.5597  0.1643  0.2180
 2627SOL    HW210506   4.065   1.712   4.370  0.7500  2.8307 -1.3428
 2627SOL    HW310507   4.103   1.613   4.262  0.8517 -0.0441  1.2732
 2627SOL    MW410508   4.045   1.666   4.299  0.6233  0.4886  0.1513
 2628SOL     OW10509   4.053   1.914   4.139  0.1072  0.0151 -0.1361
 2628SOL    HW210510   3.974   1.965   4.158  0.8186  1.3295 -0.6751
 2628SOL    HW310511   4.043   1.834   4.192 -1.8336 -0.0892 -0.6320
 2628SOL    MW410512   4.041   1.910   4.149 -0.0550  0.1748 -0.2727
 2629SOL     OW10513   4.477   1.909   4.138  0.3998  0.5076 -0.3270
 2629SOL    HW210514   4.547   1.951   4.188 -0.1832  0.4497  0.5465
 2629SOL    HW310515   4.399   1.963   4.156  0.2489  0.6660 -1.4140
 2629SOL    MW410516   4.476   1.922   4.147  0.3030  0.5209 -0.3551
 2630SOL     OW10517   4.256   2.305   4.105  0.1806 -0.3351  0.0140
 2630SOL    HW210518   4.184   2.348   4.151  0.4292 -0.2292  0.3050
 2630SOL    HW310519   4.259   2.217   4.142  0.2653 -0.3075  0.0731
 2630SOL    MW410520   4.246   2.299   4.116  0.2246 -0.3175  0.0602
 2631SOL     OW10521   4.056   2.465   4.251  0.2463  0.1842  0.3857
 2631SOL    HW210522   4.047   2.466   4.346  0.6938  1.6005  0.4234
 2631SOL    HW310523   3.972   2.434   4.219  0.5659 -1.7119  1.2795
 2631SOL    MW410524   4.044   2.461   4.259  0.3475  0.1209  0.5086
 2632SOL     OW10525   4.076   2.727   4.167 -0.1134 -0.1483  0.1811
 2632SOL    HW210526   4.080   2.633   4.188  0.1387 -0.3448 -0.7327
 2632SOL    HW310527   3.984   2.750   4.179  0.2718  0.1173  3.0697
 2632SOL    MW410528   4.065   2.717   4.171 -0.0293 -0.1391  0.4417
 2633SOL     OW10529   4.333   2.750   4.276 -0.4154 -0.1026  0.1812
 2633SOL    HW210530   4.249   2.720   4.241  0.1742  0.7236 -2.0455
 2633SOL    HW310531   4.396   2.731   4.206  0.9674  0.8365  1.1514
 2633SOL    MW410532   4.331   2.743   4.262 -0.1551  0.1303  0.0154
 2634SOL     OW10533   4.311   3.061   4.170  0.3600  0.1829 -0.3952
 2634SOL    HW210534   4.337   2.973   4.197  0.2763  0.7868  1.7575
 2634SOL    HW310535   4.293   3.054   4.076  0.2505 -2.1180 -0.2132
 2634SOL    MW410536   4.312   3.049   4.161  0.3345 -0.0410 -0.0872
 2635SOL     OW10537   4.064   3.201   4.223 -0.3409 -0.0060  0.4293
 2635SOL    HW210538   4.148   3.159   4.210 -0.5404  0.0966 -1.3485
 2635SOL    HW310539   4.000   3.141   4.184 -0.9665  0.4479  0.7381
 2635SOL    MW410540   4.067   3.188   4.216 -0.4498  0.0674  0.2355
 2636SOL     OW10541   4.053   3.474   4.116  0.0000  0.2920 -0.0862
 2636SOL    HW210542   4.056   3.380   4.134 -1.3835  0.2286 -0.1597
 2636SOL    HW310543   4.056   3.481   4.021  1.2499  0.3789 -0.0483
 2636SOL    MW410544   4.054   3.462   4.106 -0.0176  0.2951 -0.0909
 2637SOL     OW10545   4.271   3.595   4.230 -0.3419 -0.2765  0.2388
 2637SOL    HW210546   4.256   3.682   4.194  0.6929 -0.3076 -0.2922
 2637SOL    HW310547   4.201   3.541   4.195  0.5272 -0.2587 -1.5683
 2637SOL    MW410548   4.260   3.599   4.221 -0.0907 -0.2782 -0.0697
 2638SOL     OW10549   4.263   3.866   4.151  0.4648 -0.6380  0.0949
 2638SOL    HW210550   4.183   3.905   4.187  1.6478  1.3415  0.6858
 2638SOL    HW310551   4.245   3.857   4.058 -0.7519 -1.0225  0.3510
 2638SOL    MW410552   4.250   3.870   4.144  0.4604 -0.4276  0.2066
 2639SOL     OW10553   4.020   4.022   4.265 -0.2172 -0.1984  0.1528
 2639SOL    HW210554   4.025   3.974   4.348 -0.3168 -0.2104  0.1518
 2639SOL    HW310555   3.945   3.983   4.220 -0.4459  0.1247  0.2557
 2639SOL    MW410556   4.011   4.010   4.270 -0.2605 -0.1573  0.1662
 2640SOL     OW10557   4.088   4.282   4.210 -0.3314  0.6800  0.1899
 2640SOL    HW210558   4.180   4.292   4.235  0.3167 -0.8097 -1.4614
 2640SOL    HW310559   4.065   4.193   4.237 -0.6920  0.3542 -1.1559
 2640SOL    MW410560   4.097   4.271   4.217 -0.2935  0.4405 -0.2055
 2641SOL     OW10561   4.117   0.274   4.974 -0.4512  0.0607 -0.1176
 2641SOL    HW210562   4.180   0.299   4.907  0.9985 -1.6509  0.5785
 2641SOL    HW310563   4.140   0.329   5.049  0.7309 -1.0971  0.3859
 2641SOL    MW410564   4.128   0.285   4.975 -0.1040 -0.3179  0.0407
 2642SOL     OW10565   0.587   0.076   4.540  0.3047  0.3892 -0.4076
 2642SOL    HW210566   0.521   0.127   4.588  0.3104  0.7653 -0.7943
 2642SOL    HW310567   0.562   0.084   4.448 -0.1748 -1.0102 -0.4043
 2642SOL    MW410568   0.575   0.084   4.534  0.2422  0.2542 -0.4582
 2643SOL     OW10569   4.034   0.089   4.492  0.2768  0.1623 -0.3790
 2643SOL    HW210570   4.120   0.121   4.518  0.5722 -1.3333  0.6230
 2643SOL    HW310571   3.972   0.152   4.528  0.8136 -0.6021  1.9896
 2643SOL    MW410572   4.037   0.101   4.500  0.3866 -0.1358  0.0657
 2644SOL     OW10573   0.865   0.105   4.538  0.1175  0.3334  0.6451
 2644SOL    HW210574   0.770   0.093   4.541  0.2990 -0.8978  2.5430
 2644SOL    HW310575   0.879   0.197   4.561 -0.5467  0.1749  1.6890
 2644SOL    MW410576   0.854   0.115   4.541  0.0539  0.1500  1.0332
 2645SOL     OW10577   0.262   0.434   4.786 -0.0695 -0.1433 -0.2319
 2645SOL    HW210578   0.220   0.499   4.730 -0.0190 -0.2016 -0.3382
 2645SOL    HW310579   0.321   0.387   4.727 -0.1284 -0.3052 -0.1609
 2645SOL    MW410580   0.264   0.436   4.771 -0.0706 -0.1724 -0.2366
 2646SOL     OW10581   0.067   0.103   4.500  0.0109 -0.4164  0.0016
 2646SOL    HW210582   0.083   0.197   4.490  0.1378 -0.2660  1.4799
 2646SOL    HW310583  -0.022   0.098   4.535  1.0025 -0.6820  2.6323
 2646SOL    MW410584   0.057   0.115   4.503  0.1585 -0.4316  0.5438
 2647SOL     OW10585   0.100   1.331   4.538  0.1258  0.4662  0.3517
 2647SOL    HW210586   0.088   1.426   4.542 -0.5656  0.3498  1.2950
 2647SOL    HW310587   0.184   1.316   4.581  0.1754  0.6457  0.3163
 2647SOL    MW410588   0.110   1.342   4.544  0.0412  0.4745  0.4715
 2648SOL     OW10589   0.048   0.558   4.591 -0.3002  0.9395  0.3806
 2648SOL    HW210590   0.074   0.646   4.564 -1.3008  0.7919 -1.1172
 2648SOL    HW310591  -0.045   0.551   4.569 -0.0334 -0.7777 -0.3524
 2648SOL    MW410592   0.039   0.568   4.584 -0.3971  0.6934  0.0863
 2649SOL     OW10593   0.232   1.791   4.579 -0.4178 -0.4097  0.3389
 2649SOL    HW210594   0.220   1.886   4.570 -0.9029 -0.4590  0.5019
 2649SOL    HW310595   0.144   1.755   4.582 -0.2386 -1.0124 -1.2038
 2649SOL    MW410596   0.219   1.799   4.578 -0.4582 -0.4957  0.1569
 2650SOL     OW10597   0.859   2.432   4.509  0.3312  0.2500  0.0761
 2650SOL    HW210598   0.854   2.344   4.547  1.3139  0.1494 -0.0075
 2650SOL    HW310599   0.873   2.418   4.416 -0.4709  0.4986 -0.0835
 2650SOL    MW410600   0.860   2.418   4.502  0.3550  0.2695  0.0440
 2651SOL     OW10601   4.027   0.728   4.561  0.4056 -0.3499 -0.0162
 2651SOL    HW210602   4.023   0.772   4.476 -1.2736  0.0823  0.2707
 2651SOL    HW310603   3.960   0.659   4.555  0.6835 -0.6909  0.7520
 2651SOL    MW410604   4.018   0.725   4.549  0.2207 -0.3379  0.1230
 2652SOL     OW10605   0.217   2.069   4.545 -0.0770  0.0926 -0.1673
 2652SOL    HW210606   0.305   2.100   4.567 -0.0986 -0.3717  0.5949
 2652SOL    HW310607   0.159   2.119   4.601 -0.1411 -1.0367  0.7893
 2652SOL    MW410608   0.221   2.080   4.555 -0.0883 -0.1177  0.0595
 2653SOL     OW10609   0.747   0.885   4.639 -0.4417 -0.0779 -0.1296
 2653SOL    HW210610   0.815   0.940   4.599 -0.9955  1.5606  1.1244
 2653SOL    HW310611   0.695   0.855   4.564  1.1872 -0.7332 -1.0371
 2653SOL    MW410612   0.749   0.888   4.624 -0.2998  0.0518 -0.0839
 2654SOL     OW10613   4.339   1.996   4.559 -0.3005 -0.4688  0.2321
 2654SOL    HW210614   4.336   2.088   4.584  0.0594 -0.4141  0.0761
 2654SOL    HW310615   4.418   1.988   4.507 -1.3857 -0.4422 -1.4570
 2654SOL    MW410616   4.349   2.007   4.556 -0.3962 -0.4580 -0.0113
 2655SOL     OW10617   0.435   4.497   4.589  0.0617 -0.7750  0.1002
 2655SOL    HW210618   0.390   4.547   4.657  0.4780 -1.7505  1.1131
 2655SOL    HW310619   0.504   4.557   4.557 -0.7475  0.0319 -0.1531
 2655SOL    MW410620   0.438   4.512   4.594  0.0098 -0.7973  0.2004
 2656SOL     OW10621   0.991   2.353   4.838  0.2343  0.1968  0.1305
 2656SOL    HW210622   0.963   2.389   4.922  1.6368  1.7269 -0.0355
 2656SOL    HW310623   1.086   2.367   4.836  0.4046 -1.0075 -1.1448
 2656SOL    MW410624   1.000   2.360   4.849  0.4418  0.2398 -0.0597
 2657SOL     OW10625   0.110   3.479   4.595  0.2432  0.0120  0.1921
 2657SOL    HW210626   0.076   3.498   4.682  0.1318  1.3593 -0.1386
 2657SOL    HW310627   0.149   3.561   4.566  1.5805 -0.8333 -0.4392
 2657SOL    MW410628   0.111   3.492   4.603  0.4050  0.0782  0.0652
 2658SOL     OW10629   4.183   2.270   4.459 -0.1947  0.0717 -0.1193
 2658SOL    HW210630   4.120   2.252   4.528 -2.1053  2.7695 -1.0640
 2658SOL    HW310631   4.238   2.340   4.494 -0.2489  0.4403 -0.7502
 2658SOL    MW410632   4.182   2.277   4.473 -0.4539  0.4763 -0.3272
 2659SOL     OW10633   4.254   3.677   4.536  0.3955 -0.0389 -0.0417
 2659SOL    HW210634   4.261   3.645   4.446  0.4903 -0.4849  0.1204
 2659SOL    HW310635   4.183   3.741   4.534 -0.3180 -0.8288 -0.2146
 2659SOL    MW410636   4.246   3.681   4.524  0.3139 -0.2020 -0.0432
 2660SOL     OW10637   0.341   3.109   4.552  0.0383 -0.1834  0.3377
 2660SOL    HW210638   0.246   3.120   4.550 -0.0288 -0.6498  0.8097
 2660SOL    HW310639   0.376   3.193   4.523 -0.5610 -0.8467 -2.4784
 2660SOL    MW410640   0.333   3.121   4.548 -0.0496 -0.3325  0.0284
 2661SOL     OW10641   0.198   4.493   4.470 -0.1285 -0.0719  0.1471
 2661SOL    HW210642   0.277   4.489   4.523 -0.0086 -0.8205 -0.0840
 2661SOL    HW310643   0.179   4.587   4.461  1.6983  0.1931 -1.2358
 2661SOL    MW410644   0.206   4.505   4.476  0.1283 -0.1357 -0.0658
 2662SOL     OW10645   4.227   0.460   4.291 -0.4121  0.3774  0.1964
 2662SOL    HW210646   4.249   0.550   4.265 -2.1390  1.1149  1.2030
 2662SOL    HW310647   4.294   0.406   4.250  1.1281  2.2127  0.2176
 2662SOL    MW410648   4.239   0.465   4.282 -0.4367  0.7169  0.3320
 2663SOL     OW10649   3.655   0.034   4.982 -0.3382 -0.2352 -0.5737
 2663SOL    HW210650   3.618  -0.021   4.913  0.4082  1.1119 -2.0779
 2663SOL    HW310651   3.590   0.103   4.995 -0.4703 -0.4740  0.0992
 2663SOL    MW410652   3.641   0.036   4.975 -0.2571 -0.0890 -0.6834
 2664SOL     OW10653   3.823   3.555   4.475  0.6999 -0.6342 -0.1556
 2664SOL    HW210654   3.758   3.488   4.495  0.6287 -0.4857  0.1180
 2664SOL    HW310655   3.897   3.534   4.533 -0.3613  1.1026  1.9086
 2664SOL    MW410656   3.824   3.543   4.486  0.5505 -0.3854  0.1529
 2665SOL     OW10657   3.433   0.297   4.603 -0.2082  0.1538 -0.0195
 2665SOL    HW210658   3.459   0.342   4.683 -0.9540 -0.5601  0.6390
 2665SOL    HW310659   3.415   0.367   4.540  0.1867  0.7219  0.4933
 2665SOL    MW410660   3.434   0.312   4.605 -0.2545  0.1345  0.1350
 2666SOL     OW10661   0.940   4.524   4.633 -0.2804  0.5774 -0.0029
 2666SOL    HW210662   0.867   4.464   4.622  1.0893 -0.8479 -1.5557
 2666SOL    HW310663   0.910   4.606   4.592 -1.1320  0.1057 -0.3355
 2666SOL    MW410664   0.927   4.527   4.626 -0.2120  0.3271 -0.2517
 2667SOL     OW10665   4.276   0.345   4.766  0.3958  0.4697  0.5049
 2667SOL    HW210666   4.369   0.340   4.790  0.9006  0.6986 -1.3106
 2667SOL    HW310667   4.271   0.420   4.707 -0.2722 -1.6711 -2.2813
 2667SOL    MW410668   4.288   0.354   4.762  0.3742  0.2174 -0.1023
 2668SOL     OW10669   1.753   1.122   4.447 -0.0024 -0.0914  0.1898
 2668SOL    HW210670   1.688   1.181   4.410 -0.2001 -1.1914 -1.2184
 2668SOL    HW310671   1.708   1.079   4.520 -1.0896 -1.3658 -1.2100
 2668SOL    MW410672   1.739   1.124   4.452 -0.1719 -0.4047 -0.1807
 2669SOL     OW10673   0.891   0.164   4.251 -0.1846  0.2123  0.3246
 2669SOL    HW210674   0.973   0.126   4.219 -0.2679  0.6112 -0.3812
 2669SOL    HW310675   0.881   0.129   4.339  0.4132 -0.3541  0.1719
 2669SOL    MW410676   0.901   0.154   4.258 -0.1167  0.1902  0.2113
 2670SOL     OW10677   0.958   1.041   4.541 -0.2996  0.1532  0.3175
 2670SOL    HW210678   0.958   0.987   4.462  0.7204  0.8741 -0.1860
 2670SOL    HW310679   0.919   1.123   4.514 -0.8487  0.0568  0.8112
 2670SOL    MW410680   0.953   1.044   4.527 -0.2375  0.2356  0.3162
 2671SOL     OW10681   0.771   1.263   4.511  0.6940 -0.1370 -0.0769
 2671SOL    HW210682   0.747   1.283   4.421  1.9837  1.1198 -0.1624
 2671SOL    HW310683   0.689   1.239   4.553 -0.0446  0.0767 -1.3707
 2671SOL    MW410684   0.757   1.262   4.505  0.7667  0.0570 -0.2589
 2672SOL     OW10685   1.732   0.549   4.600  0.2700 -0.2696 -0.5135
 2672SOL    HW210686   1.786   0.481   4.639  2.3840  0.4859 -2.0333
 2672SOL    HW310687   1.749   0.628   4.652  0.6801 -0.0155 -1.0285
 2672SOL    MW410688   1.741   0.551   4.612  0.6031 -0.1364 -0.7820
 2673SOL     OW10689   1.192   1.062   4.714 -0.1024 -0.0987  0.1461
 2673SOL    HW210690   1.225   0.972   4.708 -0.0116  0.0395 -1.7266
 2673SOL    HW310691   1.097   1.052   4.713 -0.1048 -0.1036 -1.8325
 2673SOL    MW410692   1.184   1.049   4.713 -0.0907 -0.0811 -0.3621
 2674SOL     OW10693   1.434   0.824   4.498  0.0876  0.1463  0.3234
 2674SOL    HW210694   1.397   0.870   4.423 -1.7481  0.4605  1.3962
 2674SOL    HW310695   1.358   0.794   4.548  1.2800 -0.0152  2.0831
 2674SOL    MW410696   1.419   0.826   4.495  0.0027  0.1665  0.6971
 2675SOL     OW10697   1.154   1.304   4.554  0.0674  0.0549 -0.0200
 2675SOL    HW210698   1.217   1.364   4.594  0.2455 -0.6250  0.7483
 2675SOL    HW310699   1.174   1.219   4.593  0.1837 -0.6213 -1.5197
 2675SOL    MW410700   1.165   1.301   4.565  0.1062 -0.1240 -0.1165
 2676SOL     OW10701   0.687   2.042   4.812 -0.2788  0.2317 -0.1005
 2676SOL    HW210702   0.716   1.952   4.794  0.3483 -0.3864  3.6825
 2676SOL    HW310703   0.750   2.096   4.764  1.1180 -1.3008 -0.0610
 2676SOL    MW410704   0.699   2.037   4.803 -0.0118 -0.0520  0.4039
 2677SOL     OW10705   1.107   1.796   4.563  0.1926 -0.4065  0.0694
 2677SOL    HW210706   1.036   1.742   4.530  0.1049 -0.0029 -0.4128
 2677SOL    HW310707   1.186   1.761   4.521  0.3336 -1.1054  0.9082
 2677SOL    MW410708   1.108   1.784   4.553  0.1996 -0.4455  0.1164
 2678SOL     OW10709   0.689   2.026   4.484  0.6073 -0.3385 -0.0133
 2678SOL    HW210710   0.612   2.076   4.511  0.9422 -0.4457  1.1386
 2678SOL    HW310711   0.760   2.061   4.537  1.0822 -1.1992 -0.0771
 2678SOL    MW410712   0.688   2.037   4.494  0.7142 -0.4662  0.1303
 2679SOL     OW10713   0.479   2.398   4.496  0.3364 -0.8803 -0.7831
 2679SOL    HW210714   0.391   2.433   4.512 -0.5113 -3.0048 -0.6564
 2679SOL    HW310715   0.492   2.407   4.402  0.0452 -0.4345 -0.7796
 2679SOL    MW410716   0.469   2.404   4.486  0.1861 -1.1018 -0.7659
 2680SOL     OW10717   0.769   2.831   4.523  0.1107 -0.0008 -0.1391
 2680SOL    HW210718   0.865   2.823   4.518  0.0763  0.1724 -1.1170
 2680SOL    HW310719   0.740   2.745   4.554  0.5802 -0.0656  0.1262
 2680SOL    MW410720   0.778   2.818   4.527  0.1681  0.0135 -0.2331
 2681SOL     OW10721   1.253   2.429   4.788  0.1621 -0.0289  0.1045
 2681SOL    HW210722   1.296   2.346   4.767  0.7234  0.3240 -0.1617
 2681SOL    HW310723   1.216   2.458   4.704  0.9642  0.5615 -0.0402
 2681SOL    MW410724   1.254   2.422   4.774  0.3420  0.0955  0.0503
 2682SOL     OW10725   0.247   3.733   4.509 -0.3697 -0.0722 -0.0368
 2682SOL    HW210726   0.270   3.700   4.422  0.3654  0.7175 -0.1536
 2682SOL    HW310727   0.331   3.758   4.548 -0.7606  0.1711  0.6554
 2682SOL    MW410728   0.261   3.732   4.502 -0.3243  0.0641  0.0391
 2683SOL     OW10729   1.178   4.063   4.507 -0.5988  0.3762  0.2630
 2683SOL    HW210730   1.181   4.159   4.511 -0.6418  0.4053 -0.4195
 2683SOL    HW310731   1.087   4.043   4.485 -1.0784  0.1081  2.4259
 2683SOL    MW410732   1.167   4.073   4.505 -0.6677  0.3447  0.4583
 2684SOL     OW10733   0.251   2.551   4.554  0.1390 -0.0063  0.1483
 2684SOL    HW210734   0.160   2.524   4.566  0.5752 -1.3375  0.4711
 2684SOL    HW310735   0.246   2.647   4.551 -1.0999  0.0133  1.7330
 2684SOL    MW410736   0.238   2.560   4.555  0.0331 -0.1793  0.3999
 2685SOL     OW10737   4.221   3.050   4.792  0.4271 -0.7707  0.0163
 2685SOL    HW210738   4.263   2.991   4.855  0.4737 -1.4487 -0.6380
 2685SOL    HW310739   4.165   2.992   4.740 -0.3018 -0.0780  0.0211
 2685SOL    MW410740   4.219   3.034   4.794  0.3371 -0.7687 -0.0694
 2686SOL     OW10741   0.667   4.345   4.579  0.0475  0.0797  0.1273
 2686SOL    HW210742   0.589   4.400   4.584 -0.5844 -0.8145  0.2166
 2686SOL    HW310743   0.698   4.356   4.489 -0.6526 -0.1880 -0.1514
 2686SOL    MW410744   0.661   4.353   4.568 -0.1282 -0.0736  0.1023
 2687SOL     OW10745   3.616   4.329   4.492  0.0808  0.4149  0.5512
 2687SOL    HW210746   3.677   4.349   4.420 -0.3076  1.0911  0.4031
 2687SOL    HW310747   3.668   4.341   4.571  0.7540 -1.1853  0.3613
 2687SOL    MW410748   3.631   4.333   4.493  0.1184  0.2930  0.5066
 2688SOL     OW10749   4.472   4.090   4.726 -0.0715  0.1111  0.2067
 2688SOL    HW210750   4.530   4.047   4.789  1.3882 -0.1125 -1.2510
 2688SOL    HW310751   4.464   4.028   4.654  0.0382  1.2292 -0.7900
 2688SOL    MW410752   4.479   4.076   4.725  0.1355  0.2292 -0.1171
 2689SOL     OW10753   4.299   0.138   4.592 -0.5099 -0.6359 -0.0411
 2689SOL    HW210754   4.298   0.206   4.659  1.5565 -0.2808 -0.3374
 2689SOL    HW310755   4.310   0.056   4.641 -0.1875 -0.4868  0.1349
 2689SOL    MW410756   4.300   0.136   4.607 -0.1947 -0.5694 -0.0569
 2690SOL     OW10757   1.734   4.663   4.441 -0.0181 -0.4803  0.0547
 2690SOL    HW210758   1.804   4.631   4.498  0.9301 -2.5921 -2.2058
 2690SOL    HW310759   1.691   4.584   4.408 -1.6219  0.7257 -0.8144
 2690SOL    MW410760   1.738   4.649   4.444 -0.1046 -0.5998 -0.3582
 2691SOL     OW10761   0.893   0.658   4.718 -0.0890 -0.0030 -0.1331
 2691SOL    HW210762   0.870   0.658   4.811 -0.7018 -2.1676 -0.2693
 2691SOL    HW310763   0.850   0.736   4.683 -1.4088 -0.1991  1.0192
 2691SOL    MW410764   0.885   0.668   4.726 -0.3440 -0.3145  0.0010
 2692SOL     OW10765   4.274   0.538   4.565 -0.0404 -0.0918  0.0753
 2692SOL    HW210766   4.202   0.600   4.556 -2.2433 -2.2042  2.3882
 2692SOL    HW310767   4.271   0.486   4.484  0.6230  1.5222 -1.0184
 2692SOL    MW410768   4.264   0.539   4.553 -0.2435 -0.1576  0.2362
 2693SOL     OW10769   1.604   0.969   4.655  0.3759 -0.0712  0.0309
 2693SOL    HW210770   1.542   0.916   4.606  0.8203 -0.7004  0.1311
 2693SOL    HW310771   1.652   0.905   4.709 -0.2908  0.6285  1.4881
 2693SOL    MW410772   1.603   0.953   4.656  0.3465 -0.0619  0.2364
 2694SOL     OW10773   1.483   0.554   4.471 -0.3431 -0.3569  0.2052
 2694SOL    HW210774   1.558   0.544   4.530 -1.2529 -0.3077  1.4007
 2694SOL    HW310775   1.461   0.647   4.477 -0.2676 -0.2985 -0.4336
 2694SOL    MW410776   1.490   0.565   4.480 -0.4532 -0.3427  0.2787
 2695SOL     OW10777   0.380   1.171   4.298 -0.2030  0.4829 -0.6202
 2695SOL    HW210778   0.300   1.214   4.268 -0.7473 -0.5573 -0.6856
 2695SOL    HW310779   0.399   1.106   4.230  0.8051  0.8482 -0.6978
 2695SOL    MW410780   0.372   1.168   4.285 -0.1418  0.3938 -0.6391
 2696SOL     OW10781   0.533   1.137   4.679 -0.4513  0.2035 -0.2883
 2696SOL    HW210782   0.492   1.080   4.614 -1.5192 -0.2757  0.7704
 2696SOL    HW310783   0.565   1.077   4.746 -2.9443  0.8979  1.5915
 2696SOL    MW410784   0.532   1.122   4.679 -0.9211  0.2319  0.0994
 2697SOL     OW10785   0.545   0.760   4.437  0.1481 -0.1889 -0.0454
 2697SOL    HW210786   0.552   0.768   4.341 -1.3430 -0.8064 -0.2239
 2697SOL    HW310787   0.492   0.835   4.463 -0.5163 -0.7263  0.1488
 2697SOL    MW410788   0.539   0.771   4.427 -0.1363 -0.3413 -0.0433
 2698SOL     OW10789   1.725   0.759   4.803  0.4428  0.3002  0.1678
 2698SOL    HW210790   1.816   0.785   4.791  0.6768 -0.5698  0.0154
 2698SOL    HW310791   1.724   0.711   4.886  0.2076 -0.0774 -0.0524
 2698SOL    MW410792   1.737   0.756   4.812  0.4426  0.1356  0.1187
 2699SOL     OW10793   0.849   0.397   4.569 -0.5403 -0.3746 -0.1062
 2699SOL    HW210794   0.851   0.483   4.612  0.1064 -0.8722  0.8994
 2699SOL    HW310795   0.780   0.404   4.504 -1.4795  0.4551  0.9465
 2699SOL    MW410796   0.840   0.410   4.566 -0.5789 -0.3308  0.1654
 2700SOL     OW10797   1.065   2.782   4.490 -0.4006 -0.4158 -0.2177
 2700SOL    HW210798   1.089   2.700   4.534  0.5398  0.7670  1.4918
 2700SOL    HW310799   1.099   2.771   4.401  0.4936 -1.5272  0.2457
 2700SOL    MW410800   1.073   2.769   4.484 -0.1586 -0.4064  0.0690
 2701SOL     OW10801   1.123   2.516   4.552 -0.4454  0.2895  0.1549
 2701SOL    HW210802   1.030   2.497   4.555 -0.1029 -1.2281  3.0185
 2701SOL    HW310803   1.154   2.473   4.472 -2.1027  0.3566 -0.5370
 2701SOL    MW410804   1.115   2.508   4.542 -0.6189  0.0982  0.4414
 2702SOL     OW10805   1.404   2.851   4.502  0.2622 -0.2682 -0.4427
 2702SOL    HW210806   1.335   2.914   4.521 -0.7668 -0.8352 -2.1594
 2702SOL    HW310807   1.415   2.801   4.582  0.3357  1.3704  0.5899
 2702SOL    MW410808   1.397   2.853   4.515  0.1361 -0.1269 -0.5329
 2703SOL     OW10809   1.312   3.821   4.584  0.2711  0.2074 -0.4542
 2703SOL    HW210810   1.402   3.851   4.595  0.3022  0.1987 -0.6802
 2703SOL    HW310811   1.263   3.899   4.559  0.3642  0.0600 -1.1018
 2703SOL    MW410812   1.318   3.835   4.582  0.2875  0.1868 -0.5695
 2704SOL     OW10813   0.928   3.662   4.464 -0.2521  0.1768  0.4621
 2704SOL    HW210814   0.932   3.758   4.458 -2.1524  0.2384 -0.6092
 2704SOL    HW310815   0.999   3.631   4.408 -0.6209  0.9756 -0.4703
 2704SOL    MW410816   0.938   3.671   4.456 -0.5515  0.2903  0.1977
 2705SOL     OW10817   4.485   3.847   4.523 -0.7292 -0.4418  0.5309
 2705SOL    HW210818   4.563   3.795   4.540  0.5574  1.0674 -0.6458
 2705SOL    HW310819   4.414   3.783   4.516  0.5708 -1.9046  0.6444
 2705SOL    MW410820   4.486   3.832   4.524 -0.3880 -0.4357  0.3906
 2706SOL     OW10821   0.644   3.102   4.574 -0.0997 -0.4700 -0.0346
 2706SOL    HW210822   0.564   3.088   4.624 -0.9322 -2.1392 -1.7997
 2706SOL    HW310823   0.688   3.017   4.574  1.2501  0.2086  0.1550
 2706SOL    MW410824   0.639   3.089   4.581 -0.0314 -0.6007 -0.2425
 2707SOL     OW10825   0.962   3.205   4.534  0.3794  0.1331 -0.0090
 2707SOL    HW210826   0.872   3.185   4.558 -0.1988  1.2816 -1.1770
 2707SOL    HW310827   0.984   3.284   4.583 -0.1193  1.3020 -1.6138
 2707SOL    MW410828   0.953   3.213   4.543  0.2373  0.4389 -0.3748
 2708SOL     OW10829   1.571   3.946   4.625  0.3081  0.0471 -0.7199
 2708SOL    HW210830   1.657   3.910   4.604  0.8233  0.9656 -0.1707
 2708SOL    HW310831   1.556   3.922   4.717 -0.7096 -1.4661 -1.2459
 2708SOL    MW410832   1.580   3.938   4.634  0.2418 -0.0314 -0.7169
 2709SOL     OW10833   0.248   0.001   4.733  0.2384 -0.0078  0.0603
 2709SOL    HW210834   0.190  -0.017   4.807  0.4004  0.8788  0.4117
 2709SOL    HW310835   0.189   0.034   4.664  0.3284  0.9798  0.4476
 2709SOL    MW410836   0.232   0.003   4.734  0.2717  0.2395  0.1577
 2710SOL     OW10837   0.504   0.086   4.264  0.1078 -0.6706  0.3706
 2710SOL    HW210838   0.579   0.053   4.214  1.2210  1.1007  0.8073
 2710SOL    HW310839   0.487   0.172   4.227 -2.0473 -1.2530 -0.0369
 2710SOL    MW410840   0.512   0.093   4.253 -0.0297 -0.5137  0.3744
 2711SOL     OW10841   1.065   3.463   4.618 -0.8509  0.5618  0.3147
 2711SOL    HW210842   1.153   3.492   4.598 -0.2677 -1.1962  0.2488
 2711SOL    HW310843   1.008   3.534   4.588  0.3628  0.5345 -2.1153
 2711SOL    MW410844   1.069   3.476   4.612 -0.6138  0.3263 -0.0146
 2712SOL     OW10845   1.130   0.466   4.546 -0.3733  0.0247  0.0533
 2712SOL    HW210846   1.199   0.400   4.556  0.0608  0.1866 -1.7650
 2712SOL    HW310847   1.050   0.420   4.575  0.0174 -1.1150 -0.6309
 2712SOL    MW410848   1.128   0.451   4.551 -0.2644 -0.1043 -0.2769
 2713SOL     OW10849   1.304   3.552   4.499 -0.0373 -0.6167 -0.1582
 2713SOL    HW210850   1.269   3.549   4.410  0.2428 -1.8895 -0.2387
 2713SOL    HW310851   1.298   3.644   4.524 -0.7513 -0.3564 -1.2392
 2713SOL    MW410852   1.299   3.564   4.490 -0.0945 -0.7503 -0.3114
 2714SOL     OW10853   1.923   4.564   4.620  0.4067  0.1519  0.2919
 2714SOL    HW210854   2.003   4.524   4.588  0.1588 -0.4664  0.4415
 2714SOL    HW310855   1.872   4.491   4.655 -0.4038  0.4785 -0.1940
 2714SOL    MW410856   1.927   4.549   4.621  0.2671  0.1134  0.2475
 2715SOL     OW10857   1.153   4.360   4.527 -0.1174  0.0703 -0.0601
 2715SOL    HW210858   1.229   4.384   4.580  0.2007 -2.0386  0.4762
 2715SOL    HW310859   1.080   4.408   4.567  0.8716  1.9773 -0.4791
 2715SOL    MW410860   1.154   4.369   4.539  0.0551  0.0437 -0.0446
 2716SOL     OW10861   1.176   0.731   4.635  0.1789  0.1417  0.2734
 2716SOL    HW210862   1.101   0.755   4.690 -0.1141  0.6090 -0.3231
 2716SOL    HW310863   1.153   0.646   4.599  0.0589  0.1554  0.3165
 2716SOL    MW410864   1.163   0.723   4.637  0.1244  0.2051  0.2004
 2717SOL     OW10865   2.070   0.126   4.429 -0.1130  0.2527  0.0961
 2717SOL    HW210866   2.015   0.140   4.506 -0.5697 -0.1931 -0.1509
 2717SOL    HW310867   2.012   0.088   4.364  0.6651 -0.9501  0.1004
 2717SOL    MW410868   2.055   0.123   4.431 -0.0706  0.0352  0.0640
 2718SOL     OW10869   0.533   0.480   4.440 -0.3718  0.4312 -0.3674
 2718SOL    HW210870   0.582   0.481   4.357  1.1204  1.0018  0.4959
 2718SOL    HW310871   0.524   0.572   4.463 -2.8114  0.3871 -1.0320
 2718SOL    MW410872   0.538   0.492   4.432 -0.4968  0.5007 -0.3412
 2719SOL     OW10873   1.488   1.812   4.650  0.5226  0.0822 -0.1961
 2719SOL    HW210874   1.418   1.818   4.715 -1.0323  1.1866 -1.9092
 2719SOL    HW310875   1.448   1.768   4.576  1.4064  1.3693 -1.4790
 2719SOL    MW410876   1.474   1.807   4.649  0.4341  0.3978 -0.5914
 2720SOL     OW10877   1.503   0.076   4.589 -0.0306  0.1630  0.3599
 2720SOL    HW210878   1.474   0.000   4.640 -0.7840 -0.4406 -0.9550
 2720SOL    HW310879   1.567   0.040   4.528 -1.0333  0.4344 -0.8547
 2720SOL    MW410880   1.508   0.061   4.588 -0.2623  0.1192  0.0262
 2721SOL     OW10881   2.512   0.915   4.736  0.4307  0.1342 -0.6393
 2721SOL    HW210882   2.575   0.846   4.715  1.0844  1.0732 -1.8436
 2721SOL    HW310883   2.566   0.991   4.759 -0.2806 -0.1165  1.9577
 2721SOL    MW410884   2.527   0.916   4.736  0.4231  0.2250 -0.4555
 2722SOL     OW10885   0.878   1.634   4.510 -0.0862 -0.2106 -0.2212
 2722SOL    HW210886   0.838   1.556   4.549 -1.6007  0.3117 -0.6764
 2722SOL    HW310887   0.827   1.707   4.546 -0.2874  0.3974 -1.7300
 2722SOL    MW410888   0.866   1.634   4.520 -0.3126 -0.0615 -0.4803
 2723SOL     OW10889   1.602   2.056   4.574 -0.1598  0.6500  0.0469
 2723SOL    HW210890   1.694   2.076   4.592 -0.4798 -0.1827  2.8428
 2723SOL    HW310891   1.593   1.963   4.598 -1.6277  0.5883 -0.7052
 2723SOL    MW410892   1.613   2.046   4.580 -0.3957  0.5320  0.3165
 2724SOL     OW10893   1.357   1.675   4.463 -0.5572  0.0245  0.2392
 2724SOL    HW210894   1.376   1.684   4.369  0.8317 -0.0613  0.5026
 2724SOL    HW310895   1.365   1.581   4.479 -2.8996 -0.2266  0.0110
 2724SOL    MW410896   1.361   1.663   4.453 -0.6830 -0.0200  0.2438
 2725SOL     OW10897   2.170   2.114   4.618  0.4229  0.4034 -0.2055
 2725SOL    HW210898   2.219   2.194   4.601  1.3783 -0.2681 -0.7129
 2725SOL    HW310899   2.231   2.044   4.593 -0.1823 -0.4865  0.8022
 2725SOL    MW410900   2.185   2.115   4.612  0.4691  0.1974 -0.1395
 2726SOL     OW10901   1.459   2.434   4.536 -0.2922 -0.2296  0.1870
 2726SOL    HW210902   1.459   2.520   4.577  0.8680  0.0646 -0.3853
 2726SOL    HW310903   1.449   2.452   4.443  0.3770 -0.6757  0.0205
 2726SOL    MW410904   1.458   2.447   4.529 -0.0508 -0.2496  0.0895
 2727SOL     OW10905   0.722   4.067   4.631  0.4276 -0.2565 -0.2810
 2727SOL    HW210906   0.689   4.152   4.602  0.1872  0.1209  1.0519
 2727SOL    HW310907   0.734   4.077   4.725 -0.0706 -1.8605 -0.0349
 2727SOL    MW410908   0.720   4.079   4.639  0.3301 -0.4183 -0.0727
 2728SOL     OW10909   0.665   2.596   4.598  0.6057 -0.2922 -0.0017
 2728SOL    HW210910   0.742   2.540   4.585 -0.3705 -1.5219 -0.6248
 2728SOL    HW310911   0.590   2.538   4.585 -0.4464  1.1906 -0.8084
 2728SOL    MW410912   0.665   2.581   4.594  0.3381 -0.2588 -0.1904
 2729SOL     OW10913   1.444   2.673   4.719 -0.2042 -0.3263  0.0189
 2729SOL    HW210914   1.391   2.608   4.764 -0.6595 -0.1651 -0.2672
 2729SOL    HW310915   1.517   2.691   4.778 -0.0161 -1.1720  0.0462
 2729SOL    MW410916   1.446   2.667   4.733 -0.2394 -0.4166 -0.0152
 2730SOL     OW10917   1.181   3.027   4.542  0.1515 -0.0000  0.0954
 2730SOL    HW210918   1.115   3.095   4.525  0.0813 -0.4735 -1.6607
 2730SOL    HW310919   1.131   2.945   4.542  0.6285 -0.2959 -0.5236
 2730SOL    MW410920   1.165   3.025   4.540  0.2052 -0.1015 -0.2180
 2731SOL     OW10921   1.169   3.588   4.263  0.0825  0.0962  0.0592
 2731SOL    HW210922   1.159   3.680   4.236 -1.3359  0.5379  1.9787
 2731SOL    HW310923   1.085   3.548   4.244  0.5216 -0.6894 -0.2602
 2731SOL    MW410924   1.157   3.595   4.256 -0.0467  0.0508  0.2703
 2732SOL     OW10925   0.645   3.567   4.489 -0.1180  0.2455 -0.0811
 2732SOL    HW210926   0.733   3.604   4.483 -0.4169  0.8362 -1.1173
 2732SOL    HW310927   0.591   3.639   4.522 -0.0306 -0.4420  1.6059
 2732SOL    MW410928   0.649   3.582   4.493 -0.1459  0.2327  0.0048
 2733SOL     OW10929   2.044   3.628   4.600 -0.4900 -0.1390  0.0183
 2733SOL    HW210930   2.033   3.538   4.631  0.2082 -0.6643 -1.1914
 2733SOL    HW310931   2.059   3.619   4.505 -0.2314  1.2316 -0.0869
 2733SOL    MW410932   2.045   3.615   4.591 -0.3637 -0.0275 -0.1552
 2734SOL     OW10933   1.392   3.252   4.447 -0.4051 -0.6479 -0.5121
 2734SOL    HW210934   1.358   3.318   4.507 -0.3620 -1.1424  0.0611
 2734SOL    HW310935   1.350   3.171   4.475  0.8958 -1.1848 -0.0692
 2734SOL    MW410936   1.382   3.250   4.459 -0.2278 -0.7840 -0.3781
 2735SOL     OW10937   2.048   3.361   4.664  0.2908 -0.4882 -0.0149
 2735SOL    HW210938   2.104   3.354   4.741  0.7317  0.8258 -0.2007
 2735SOL    HW310939   1.975   3.302   4.682  0.9732 -1.0820  0.8898
 2735SOL    MW410940   2.046   3.352   4.676  0.4390 -0.3931  0.0800
 2736SOL     OW10941   0.922   3.953   4.465  0.1121  0.3759  0.1878
 2736SOL    HW210942   0.878   3.965   4.380  1.2471  0.2259 -0.4268
 2736SOL    HW310943   0.872   4.009   4.525 -1.0420  0.0652 -0.4518
 2736SOL    MW410944   0.909   3.962   4.461  0.1096  0.3151  0.0223
 2737SOL     OW10945   1.812   4.322   4.765 -0.1086 -0.1385 -0.0504
 2737SOL    HW210946   1.880   4.256   4.758  1.9569  1.8834  0.3752
 2737SOL    HW310947   1.810   4.345   4.858  0.5040  1.6934 -0.4637
 2737SOL    MW410948   1.820   4.316   4.776  0.2448  0.3700 -0.0488
 2738SOL     OW10949   2.459   0.526   4.445  0.1462 -0.2652  0.3723
 2738SOL    HW210950   2.371   0.548   4.474  0.8511 -0.0054  2.4021
 2738SOL    HW310951   2.474   0.437   4.479  0.1647 -0.8529 -1.1451
 2738SOL    MW410952   2.449   0.517   4.453  0.2416 -0.3084  0.4399
 2739SOL     OW10953   1.434   4.435   4.538  0.0346 -0.2085 -0.1152
 2739SOL    HW210954   1.489   4.361   4.567 -2.8191 -2.2005  0.3683
 2739SOL    HW310955   1.473   4.462   4.455  1.9627 -1.3366  0.3826
 2739SOL    MW410956   1.447   4.429   4.531 -0.0875 -0.6202  0.0142
 2740SOL     OW10957   1.915   0.192   4.674  0.5431 -0.0133  0.2968
 2740SOL    HW210958   1.819   0.185   4.671  0.4668  0.9867  0.0540
 2740SOL    HW310959   1.943   0.117   4.725 -0.2854 -1.0192 -0.6988
 2740SOL    MW410960   1.906   0.181   4.680  0.4237 -0.0141  0.1334
 2741SOL     OW10961   2.465   0.172   4.273 -0.0715  0.3988 -0.0310
 2741SOL    HW210962   2.469   0.190   4.367 -1.4587  2.2028 -0.3008
 2741SOL    HW310963   2.532   0.229   4.235  0.1069  0.0758 -0.2052
 2741SOL    MW410964   2.474   0.181   4.281 -0.2310  0.5942 -0.0895
 2742SOL     OW10965   2.017   0.739   4.830 -0.0365  0.1063  0.0425
 2742SOL    HW210966   2.089   0.785   4.786 -0.1874  0.1811 -0.1322
 2742SOL    HW310967   2.032   0.646   4.811 -0.4335  0.1838 -0.6848
 2742SOL    MW410968   2.028   0.733   4.821 -0.1088  0.1264 -0.0765
 2743SOL     OW10969   1.370   0.289   4.484  0.1836  0.0556  0.4087
 2743SOL    HW210970   1.428   0.363   4.502  0.6269 -0.0987 -0.3698
 2743SOL    HW310971   1.408   0.217   4.536 -1.4552  0.8798  2.8370
 2743SOL    MW410972   1.383   0.289   4.494  0.0258  0.1440  0.6264
 2744SOL     OW10973   1.897   2.110   4.544  0.1250 -0.3538 -0.0692
 2744SOL    HW210974   1.900   2.081   4.453  1.4081 -1.0934  0.1991
 2744SOL    HW310975   1.988   2.107   4.573 -0.4707 -1.9283  1.7863
 2744SOL    MW410976   1.909   2.105   4.536  0.2157 -0.6591  0.2110
 2745SOL     OW10977   0.863   2.178   4.652 -0.5370  0.7143  0.0360
 2745SOL    HW210978   0.890   2.232   4.727 -0.7794  1.3363 -0.3223
 2745SOL    HW310979   0.946   2.146   4.615 -0.5034 -2.0698  2.3539
 2745SOL    MW410980   0.878   2.181   4.657 -0.5645  0.4291  0.2946
 2746SOL     OW10981   2.158   1.631   4.687  0.0057  0.5583 -0.5684
 2746SOL    HW210982   2.073   1.607   4.652 -2.0675  3.6646  2.0319
 2746SOL    HW310983   2.167   1.579   4.767 -0.7488  2.2446  0.6377
 2746SOL    MW410984   2.148   1.621   4.693 -0.3674  1.1906 -0.0662
 2747SOL     OW10985   1.439   1.419   4.556  0.1968 -0.1497 -0.4105
 2747SOL    HW210986   1.513   1.467   4.595 -0.4373  0.6382 -0.1645
 2747SOL    HW310987   1.443   1.333   4.596  0.4210  0.1951  0.3267
 2747SOL    MW410988   1.449   1.414   4.567  0.1427 -0.0003 -0.2808
 2748SOL     OW10989   1.977   1.276   4.483  0.5190 -0.1394  0.1926
 2748SOL    HW210990   1.892   1.232   4.478 -0.2274  1.1486  1.2596
 2748SOL    HW310991   2.004   1.287   4.392 -0.3547 -0.7358 -0.1480
 2748SOL    MW410992   1.969   1.271   4.471  0.3052 -0.0482  0.2885
 2749SOL     OW10993   2.280   2.368   4.549  0.0690  0.0503 -0.3180
 2749SOL    HW210994   2.258   2.400   4.462  0.0277  1.0524  0.0610
 2749SOL    HW310995   2.244   2.432   4.609 -0.3972 -0.9297  0.4660
 2749SOL    MW410996   2.273   2.381   4.545  0.0020  0.0533 -0.1645
 2750SOL     OW10997   1.116   2.073   4.542  0.3105 -0.1174  0.4376
 2750SOL    HW210998   1.182   2.114   4.597  0.1094 -0.5724  1.0216
 2750SOL    HW310999   1.128   1.979   4.555 -0.1331 -0.2138  0.1779
 2750SOL    MW411000   1.126   2.066   4.551  0.2255 -0.1902  0.4804
 2751SOL     OW11001   1.686   2.733   4.831  0.1152  0.1977 -0.0193
 2751SOL    HW211002   1.745   2.682   4.775 -0.7358 -0.5931 -0.2063
 2751SOL    HW311003   1.673   2.815   4.784 -0.8717 -0.6027 -1.1475
 2751SOL    MW411004   1.692   2.737   4.818 -0.1273 -0.0123 -0.1928
 2752SOL     OW11005   1.860   2.611   4.640  0.2783 -0.0861  0.0167
 2752SOL    HW211006   1.815   2.541   4.591 -2.5221  1.3845  0.3782
 2752SOL    HW311007   1.945   2.574   4.662  0.7138 -1.6663 -3.8931
 2752SOL    MW411008   1.865   2.597   4.636 -0.0337 -0.1006 -0.4514
 2753SOL     OW11009   2.242   4.141   4.558 -0.5401 -0.0614  0.1640
 2753SOL    HW211010   2.329   4.158   4.595  0.6294  0.3628 -2.6468
 2753SOL    HW311011   2.260   4.087   4.481 -2.9130 -1.1074  0.3217
 2753SOL    MW411012   2.256   4.136   4.553 -0.6989 -0.1434 -0.1860
 2754SOL     OW11013   1.674   3.244   4.500 -0.6062  0.2168 -0.0719
 2754SOL    HW211014   1.584   3.268   4.478 -0.6746  1.3090  1.3230
 2754SOL    HW311015   1.718   3.232   4.416 -2.3626 -1.5703 -0.7796
 2754SOL    MW411016   1.668   3.245   4.486 -0.8470  0.1251  0.0188
 2755SOL     OW11017   1.644   2.980   4.605 -0.3665  0.3100  0.4673
 2755SOL    HW211018   1.649   3.063   4.557  0.1491 -0.9914 -1.8371
 2755SOL    HW311019   1.566   2.938   4.571 -0.6059 -0.1592  1.6078
 2755SOL    MW411020   1.635   2.986   4.594 -0.3301  0.0764  0.3137
 2756SOL     OW11021   2.293   3.650   4.742  0.6776  0.0084 -0.7314
 2756SOL    HW211022   2.270   3.726   4.795  2.7195  0.7149 -0.8059
 2756SOL    HW311023   2.213   3.630   4.692 -0.4638  0.8914  0.7246
 2756SOL    MW411024   2.279   3.657   4.742  0.7964  0.2181 -0.5491
 2757SOL     OW11025   1.994   4.109   4.726  0.6810 -0.1144  0.0257
 2757SOL    HW211026   2.079   4.138   4.693  1.2860 -0.2422  1.4700
 2757SOL    HW311027   1.971   4.035   4.670  0.9598  0.6618 -1.1308
 2757SOL    MW411028   2.002   4.103   4.714  0.7976 -0.0289  0.0637
 2758SOL     OW11029   2.738   2.719   4.644 -0.5920 -0.3136 -0.4313
 2758SOL    HW211030   2.677   2.791   4.664 -0.0550  0.3357 -1.1105
 2758SOL    HW311031   2.681   2.646   4.619 -1.0793  0.5891 -2.0429
 2758SOL    MW411032   2.722   2.719   4.643 -0.5855 -0.1088 -0.7336
 2759SOL     OW11033   2.123   4.385   4.505  0.1776  0.0873 -0.9201
 2759SOL    HW211034   2.203   4.435   4.492 -0.8240  2.3381  1.2125
 2759SOL    HW311035   2.153   4.295   4.519  2.2396  0.7312 -1.0374
 2759SOL    MW411036   2.138   4.379   4.505  0.3175  0.4692 -0.6542
 2760SOL     OW11037   2.578   4.582   4.322 -0.1539 -0.2970 -0.0534
 2760SOL    HW211038   2.530   4.523   4.264  0.4391  0.7464 -1.6396
 2760SOL    HW311039   2.549   4.669   4.297  0.1407  0.1622  1.1953
 2760SOL    MW411040   2.568   4.586   4.311 -0.0368 -0.0988 -0.0979
 2761SOL     OW11041   1.842   3.901   4.566 -0.7497 -0.8274  0.0679
 2761SOL    HW211042   1.881   3.815   4.549  0.3858 -0.1748 -0.7458
 2761SOL    HW311043   1.853   3.948   4.483  1.0150  0.9878  1.2972
 2761SOL    MW411044   1.848   3.896   4.553 -0.3671 -0.5018  0.1227
 2762SOL     OW11045   2.292   0.095   4.588  0.4911  0.1372 -0.0816
 2762SOL    HW211046   2.326   0.007   4.574  1.1148  0.6987 -2.4217
 2762SOL    HW311047   2.225   0.105   4.520  0.5926  1.5524  0.0149
 2762SOL    MW411048   2.288   0.085   4.577  0.5868  0.3980 -0.3776
 2763SOL     OW11049   2.513   3.629   4.586 -0.5374  0.2872 -0.0920
 2763SOL    HW211050   2.554   3.547   4.611 -0.3820 -0.0573 -1.4273
 2763SOL    HW311051   2.438   3.638   4.644  0.2786 -0.0855  1.0194
 2763SOL    MW411052   2.509   3.620   4.597 -0.4092  0.1925 -0.1215
 2764SOL     OW11053   1.445   1.189   4.692 -0.2673  0.4244  0.1613
 2764SOL    HW211054   1.366   1.144   4.720  0.1527 -0.9641 -0.8020
 2764SOL    HW311055   1.511   1.120   4.687  1.0926  1.6192  1.2534
 2764SOL    MW411056   1.443   1.174   4.695 -0.0324  0.3988  0.1783
 2765SOL     OW11057   2.928   0.376   4.685 -0.0108  0.2470 -0.2864
 2765SOL    HW211058   2.885   0.447   4.735 -0.5800  0.1321 -0.6105
 2765SOL    HW311059   2.864   0.305   4.686  0.1590  0.0910 -0.8120
 2765SOL    MW411060   2.914   0.376   4.692 -0.0635  0.2113 -0.3985
 2766SOL     OW11061   2.252   0.839   4.671  0.5169 -0.1075  0.4026
 2766SOL    HW211062   2.346   0.853   4.687  0.9430 -1.2171 -1.0214
 2766SOL    HW311063   2.225   0.914   4.619  0.8025 -0.1822  0.1423
 2766SOL    MW411064   2.261   0.850   4.667  0.6108 -0.2638  0.1804
 2767SOL     OW11065   2.727   0.947   4.445  0.2588 -0.0762  0.0067
 2767SOL    HW211066   2.733   0.970   4.353  0.8332 -0.2170  0.0089
 2767SOL    HW311067   2.811   0.906   4.466 -0.5104 -1.6015  0.1660
 2767SOL    MW411068   2.739   0.945   4.436  0.2331 -0.2960  0.0280
 2768SOL     OW11069   3.148   1.421   4.567 -0.1503 -0.6024  0.3137
 2768SOL    HW211070   3.201   1.500   4.578 -0.9278  0.0566 -0.5755
 2768SOL    HW311071   3.059   1.450   4.591 -0.4148 -1.2292  0.0829
 2768SOL    MW411072   3.143   1.436   4.572 -0.2878 -0.5981  0.1660
 2769SOL     OW11073   2.529   2.540   4.554 -0.1003  0.2528  0.0186
 2769SOL    HW211074   2.473   2.614   4.530  0.7321  0.4932 -1.2262
 2769SOL    HW311075   2.470   2.464   4.552 -0.4243  0.5203 -1.1651
 2769SOL    MW411076   2.513   2.539   4.551 -0.0332  0.3198 -0.3018
 2770SOL     OW11077   2.757   1.364   4.504  0.0942 -0.2582 -0.2560
 2770SOL    HW211078   2.807   1.419   4.565 -0.5166  0.3599 -0.3008
 2770SOL    HW311079   2.821   1.334   4.440  0.3484  0.7954 -0.5014
 2770SOL    MW411080   2.772   1.368   4.504  0.0471 -0.0376 -0.2943
 2771SOL     OW11081   1.736   2.375   4.478  0.1324 -0.3987 -0.6100
 2771SOL    HW211082   1.763   2.296   4.525  0.8150  0.3399  0.2649
 2771SOL    HW311083   1.643   2.384   4.496  0.2378 -0.5319 -0.0044
 2771SOL    MW411084   1.727   2.366   4.486  0.2363 -0.3188 -0.4147
 2772SOL     OW11085   1.655   1.544   4.657  0.3340 -0.1899  0.0984
 2772SOL    HW211086   1.749   1.543   4.638  0.7352  0.5532  1.9185
 2772SOL    HW311087   1.637   1.634   4.683 -0.1455 -1.1022  3.1434
 2772SOL    MW411088   1.665   1.555   4.658  0.3237 -0.2123  0.7403
 2773SOL     OW11089   2.127   2.591   4.701  0.4799 -0.4549 -0.3643
 2773SOL    HW211090   2.131   2.683   4.677 -0.6586 -0.2287  0.2406
 2773SOL    HW311091   2.167   2.587   4.788 -0.5799 -0.3145  0.1412
 2773SOL    MW411092   2.133   2.602   4.710  0.1899 -0.4065 -0.2178
 2774SOL     OW11093   1.929   1.552   4.552 -0.0532 -0.7641  0.5946
 2774SOL    HW211094   1.905   1.591   4.468 -0.0600 -0.1726  0.8715
 2774SOL    HW311095   1.963   1.466   4.530  2.2967  0.3498 -0.2361
 2774SOL    MW411096   1.930   1.546   4.538  0.2560 -0.5391  0.5215
 2775SOL     OW11097   1.341   2.197   4.662  0.5654  0.4829  0.5309
 2775SOL    HW211098   1.353   2.263   4.594  0.2143  0.1101  0.0990
 2775SOL    HW311099   1.416   2.139   4.652 -1.6657 -2.0801 -2.4323
 2775SOL    MW411100   1.353   2.198   4.652  0.2247  0.0956  0.0829
 2776SOL     OW11101   1.877   2.859   4.522 -0.2897  0.0002 -0.1710
 2776SOL    HW211102   1.795   2.894   4.557 -0.5655 -0.0274 -0.7696
 2776SOL    HW311103   1.881   2.769   4.555  0.2599  0.4933  1.1039
 2776SOL    MW411104   1.866   2.852   4.531 -0.2535  0.0616 -0.0817
 2777SOL     OW11105   2.148   2.906   4.560 -0.0394  0.3659 -0.0292
 2777SOL    HW211106   2.053   2.893   4.562 -0.0037  0.1509  0.3186
 2777SOL    HW311107   2.160   3.000   4.574 -0.2220  0.4768 -0.5993
 2777SOL    MW411108   2.137   2.917   4.562 -0.0588  0.3522 -0.0585
 2778SOL     OW11109   2.222   3.181   4.557 -0.5334  0.0816  0.3133
 2778SOL    HW211110   2.235   3.189   4.463  0.7880  1.0567  0.5568
 2778SOL    HW311111   2.159   3.250   4.579  1.4670  1.8862  0.5708
 2778SOL    MW411112   2.216   3.191   4.548 -0.0951  0.4483  0.3794
 2779SOL     OW11113   1.572   4.232   4.623  0.1023  0.1752  0.3258
 2779SOL    HW211114   1.558   4.137   4.623 -0.9203  0.3181  0.0348
 2779SOL    HW311115   1.643   4.246   4.685  0.5886 -0.8312 -0.0016
 2779SOL    MW411116   1.579   4.221   4.631  0.0316  0.0613  0.2442
 2780SOL     OW11117   2.495   0.263   4.549 -0.1031 -0.1763 -0.1847
 2780SOL    HW211118   2.423   0.204   4.569  0.7019 -1.3841 -0.8036
 2780SOL    HW311119   2.573   0.217   4.578  0.7021 -0.1929 -2.2831
 2780SOL    MW411120   2.496   0.249   4.556  0.1093 -0.3379 -0.5432
 2781SOL     OW11121   2.455   3.218   4.708 -0.4157  0.2810  0.3749
 2781SOL    HW211122   2.528   3.273   4.678 -0.7289 -0.8819 -2.7382
 2781SOL    HW311123   2.396   3.215   4.633 -2.7997 -0.2785  2.2403
 2781SOL    MW411124   2.457   3.225   4.694 -0.7716  0.0538  0.2102
 2782SOL     OW11125   4.008   4.563   4.695 -0.1906  0.0946  0.0519
 2782SOL    HW211126   4.016   4.607   4.611  0.1865  0.3706  0.2266
 2782SOL    HW311127   3.987   4.633   4.757  0.5239  0.0564  0.3508
 2782SOL    MW411128   4.006   4.578   4.692 -0.0466  0.1260  0.1144
 2783SOL     OW11129   3.253   4.017   4.575  0.5788  0.2388 -0.0578
 2783SOL    HW211130   3.346   4.038   4.578  0.8121 -0.5765 -1.2205
 2783SOL    HW311131   3.242   3.944   4.636  0.6585  0.4809  0.2466
 2783SOL    MW411132   3.264   4.010   4.583  0.6201  0.1632 -0.1711
 2784SOL     OW11133   2.700   3.827   4.578  0.2086  0.0538  0.3343
 2784SOL    HW211134   2.626   3.766   4.582  0.4315 -0.2447 -0.0937
 2784SOL    HW311135   2.777   3.772   4.590  0.3951  0.2799  0.1775
 2784SOL    MW411136   2.700   3.812   4.580  0.2626  0.0443  0.2571
 2785SOL     OW11137   2.371   4.511   4.502 -0.7375  0.2036 -0.1853
 2785SOL    HW211138   2.416   4.438   4.544 -0.6846  0.3769  0.0538
 2785SOL    HW311139   2.437   4.551   4.445 -0.4242  0.8213  0.6082
 2785SOL    MW411140   2.386   4.507   4.500 -0.6891  0.3079 -0.0490
 2786SOL     OW11141   3.036   0.543   4.475 -0.0400 -0.1227 -0.0660
 2786SOL    HW211142   2.975   0.510   4.410 -1.5869  0.9764  0.7945
 2786SOL    HW311143   3.009   0.501   4.557  1.0128 -0.4272  0.1345
 2786SOL    MW411144   3.025   0.533   4.477 -0.1052 -0.0179  0.0740
 2787SOL     OW11145   2.222   0.610   4.522  0.2355 -0.0692 -0.2081
 2787SOL    HW211146   2.130   0.618   4.497 -0.1279 -1.3258  0.6955
 2787SOL    HW311147   2.241   0.691   4.569 -0.0459  0.7508 -1.4597
 2787SOL    MW411148   2.212   0.622   4.525  0.1504 -0.1268 -0.2540
 2788SOL     OW11149   2.876   4.325   4.541 -0.5283 -0.9760 -0.1019
 2788SOL    HW211150   2.816   4.253   4.523 -0.6404 -0.9540  0.1725
 2788SOL    HW311151   2.957   4.282   4.567 -0.8382 -1.0050  0.8417
 2788SOL    MW411152   2.879   4.310   4.542 -0.5840 -0.9769  0.0588
 2789SOL     OW11153   2.621   1.154   4.612 -0.5162 -0.2181  0.5531
 2789SOL    HW211154   2.646   1.081   4.555 -2.8754 -0.4621 -0.2385
 2789SOL    HW311155   2.683   1.224   4.591  0.4464 -1.2977 -0.2071
 2789SOL    MW411156   2.633   1.154   4.602 -0.7005 -0.3927  0.3484
 2790SOL     OW11157   3.484   0.469   4.824 -0.0233  0.3733 -0.3663
 2790SOL    HW211158   3.477   0.446   4.917  1.1153 -0.5606 -0.5052
 2790SOL    HW311159   3.515   0.560   4.824 -0.7464  0.6261  0.1662
 2790SOL    MW411160   3.487   0.478   4.836  0.0315  0.2835 -0.3143
 2791SOL     OW11161   2.184   1.075   4.514 -0.0466  0.3717 -0.2530
 2791SOL    HW211162   2.108   1.129   4.492 -0.0863  0.3881 -0.0749
 2791SOL    HW311163   2.200   1.024   4.434 -1.1295 -0.6747  0.1656
 2791SOL    MW411164   2.176   1.075   4.501 -0.1947  0.2358 -0.1743
 2792SOL     OW11165   3.292   1.185   4.490 -0.1452  0.0191  0.0918
 2792SOL    HW211166   3.217   1.244   4.500 -0.0177 -0.1330  2.1431
 2792SOL    HW311167   3.254   1.097   4.493 -0.0744 -0.0378 -0.6438
 2792SOL    MW411168   3.277   1.182   4.492 -0.1191 -0.0085  0.2654
 2793SOL     OW11169   3.870   1.149   4.546 -0.0390 -0.1861  0.2316
 2793SOL    HW211170   3.862   1.082   4.614 -0.9031  0.1439  0.4707
 2793SOL    HW311171   3.780   1.175   4.527  0.0894 -1.4843 -2.3004
 2793SOL    MW411172   3.857   1.144   4.553 -0.1361 -0.3139 -0.0709
 2794SOL     OW11173   3.589   1.196   4.487  0.1762  0.5180  0.1330
 2794SOL    HW211174   3.596   1.101   4.478  3.6117  0.8042 -0.6619
 2794SOL    HW311175   3.496   1.214   4.473 -0.5239 -2.7086  0.2641
 2794SOL    MW411176   3.577   1.186   4.484  0.5371  0.1301  0.0454
 2795SOL     OW11177   2.920   1.538   4.680 -0.2252  0.0592 -0.0215
 2795SOL    HW211178   2.851   1.598   4.651 -1.8703 -1.0477  1.5610
 2795SOL    HW311179   2.988   1.596   4.715 -0.8084  1.1042 -0.5757
 2795SOL    MW411180   2.920   1.553   4.681 -0.5192  0.0510  0.1142
 2796SOL     OW11181   2.434   1.950   4.549 -0.2118  0.0984 -0.2178
 2796SOL    HW211182   2.413   1.857   4.539  0.7132  0.0263 -1.7030
 2796SOL    HW311183   2.497   1.953   4.621  1.5449 -0.7138 -1.6930
 2796SOL    MW411184   2.440   1.938   4.558  0.1420 -0.0183 -0.6084
 2797SOL     OW11185   2.349   1.693   4.486 -0.5480 -0.5180 -0.0662
 2797SOL    HW211186   2.274   1.685   4.546 -0.6757  0.1904 -0.1283
 2797SOL    HW311187   2.413   1.630   4.520 -0.6540 -0.1913  0.7629
 2797SOL    MW411188   2.347   1.684   4.499 -0.5788 -0.3814  0.0350
 2798SOL     OW11189   2.735   1.732   4.556 -0.2838  0.2898 -0.0199
 2798SOL    HW211190   2.722   1.708   4.465  0.4721 -1.3435  0.2862
 2798SOL    HW311191   2.660   1.695   4.602  0.2566 -0.4698  0.2723
 2798SOL    MW411192   2.724   1.724   4.550 -0.1128 -0.0259  0.0590
 2799SOL     OW11193   2.395   2.770   4.496 -0.5974  0.0203  0.1665
 2799SOL    HW211194   2.305   2.801   4.507 -0.3992  0.8695 -0.5831
 2799SOL    HW311195   2.448   2.837   4.538 -0.3099 -0.6002  0.8217
 2799SOL    MW411196   2.390   2.783   4.503 -0.5333  0.0504  0.1540
 2800SOL     OW11197   3.395   3.396   4.591 -0.0358  0.0824  0.0997
 2800SOL    HW211198   3.335   3.322   4.587  0.4716 -0.2308 -1.8378
 2800SOL    HW311199   3.481   3.358   4.577  0.4199  0.8007  0.9024
 2800SOL    MW411200   3.398   3.381   4.589  0.0912  0.1359 -0.0500
 2801SOL     OW11201   2.556   2.959   4.620 -0.1695 -0.0944  0.5726
 2801SOL    HW211202   2.624   2.991   4.561 -1.4007 -0.2139 -0.9558
 2801SOL    HW311203   2.534   3.035   4.674 -0.8119  0.7850 -0.8671
 2801SOL    MW411204   2.562   2.973   4.619 -0.4167  0.0059  0.1810
 2802SOL     OW11205   3.241   3.523   4.793  0.2092  0.3758  0.1887
 2802SOL    HW211206   3.323   3.502   4.747  0.0361 -0.0059  0.0489
 2802SOL    HW311207   3.254   3.490   4.882 -0.5138 -1.4258 -0.3553
 2802SOL    MW411208   3.253   3.516   4.799  0.0909  0.0877  0.0985
 2803SOL     OW11209   3.159   3.219   4.535  0.0326  0.6268 -0.9109
 2803SOL    HW211210   3.153   3.222   4.440  2.5554 -0.4336 -1.1442
 2803SOL    HW311211   3.220   3.148   4.554 -0.5819  0.6750  1.5173
 2803SOL    MW411212   3.166   3.210   4.525  0.2843  0.4933 -0.6213
 2804SOL     OW11213   3.198   3.757   4.641 -0.1653  0.3498 -0.2833
 2804SOL    HW211214   3.252   3.717   4.572 -2.0365 -0.2454 -1.4339
 2804SOL    HW311215   3.203   3.694   4.713 -0.5411 -0.4459 -0.9376
 2804SOL    MW411216   3.206   3.743   4.641 -0.4618  0.1663 -0.5215
 2805SOL     OW11217   2.991   3.414   4.683  0.1111  0.3647  0.6389
 2805SOL    HW211218   3.032   3.340   4.639  1.4947  1.2388  0.4358
 2805SOL    HW311219   3.064   3.462   4.722 -0.5761  2.6657 -0.8320
 2805SOL    MW411220   3.006   3.410   4.682  0.2030  0.7836  0.4181
 2806SOL     OW11221   4.457   4.353   4.604  0.1437  0.2277 -0.1389
 2806SOL    HW211222   4.539   4.383   4.567  0.6841 -0.0191  0.8439
 2806SOL    HW311223   4.478   4.269   4.647  0.1908  1.8371  3.1863
 2806SOL    MW411224   4.470   4.346   4.605  0.2212  0.4075  0.4295
 2807SOL     OW11225   2.933   3.649   4.541 -0.5811  0.3484  0.1949
 2807SOL    HW211226   3.015   3.695   4.556 -0.4700 -0.0984  0.9531
 2807SOL    HW311227   2.942   3.566   4.587 -1.1167 -0.0808 -0.4550
 2807SOL    MW411228   2.945   3.644   4.549 -0.6371  0.2328  0.2092
 2808SOL     OW11229   2.661   4.098   4.492  0.0023 -0.2295 -0.2271
 2808SOL    HW211230   2.675   4.064   4.404  0.5703 -0.9952  0.1476
 2808SOL    HW311231   2.675   4.022   4.549 -2.2736 -0.1942  0.4092
 2808SOL    MW411232   2.665   4.083   4.488 -0.2230 -0.3258 -0.0937
 2809SOL     OW11233   2.522   4.302   4.611 -0.1157  0.0771  0.5090
 2809SOL    HW211234   2.548   4.255   4.531 -1.8128  0.6082 -0.3891
 2809SOL    HW311235   2.604   4.338   4.645  0.5710  0.3188 -1.3039
 2809SOL    MW411236   2.536   4.300   4.605 -0.2490  0.1790  0.1513
 2810SOL     OW11237   3.803   0.466   4.239 -0.7096  0.1639  0.0122
 2810SOL    HW211238   3.791   0.555   4.207 -1.3551  0.3163  0.6675
 2810SOL    HW311239   3.890   0.441   4.208  0.6069  1.9715  2.0310
 2810SOL    MW411240   3.813   0.474   4.231 -0.6211  0.4225  0.3650
 2811SOL     OW11241   2.616   0.706   4.585 -0.4031 -0.0947 -0.3843
 2811SOL    HW211242   2.555   0.648   4.541 -2.2315  1.4106  0.0806
 2811SOL    HW311243   2.629   0.779   4.524 -0.6337  0.5574  0.3347
 2811SOL    MW411244   2.610   0.708   4.571 -0.6748  0.1900 -0.2281
 2812SOL     OW11245   2.395   1.277   4.571  0.2165 -0.4950 -0.4722
 2812SOL    HW211246   2.317   1.222   4.579  0.1742 -0.2967  0.5474
 2812SOL    HW311247   2.467   1.221   4.600  0.2674 -0.2525 -0.1164
 2812SOL    MW411248   2.395   1.262   4.576  0.2176 -0.4369 -0.2908
 2813SOL     OW11249   2.830   0.628   4.752  0.0542  0.3991  0.2576
 2813SOL    HW211250   2.764   0.652   4.687  1.2314  2.5873 -0.1859
 2813SOL    HW311251   2.794   0.659   4.835  0.2130  0.9679  0.1151
 2813SOL    MW411252   2.816   0.635   4.754  0.2305  0.7629  0.1803
 2814SOL     OW11253   0.042   4.657   4.912 -0.2647  0.3592  0.4893
 2814SOL    HW211254   0.017   4.637   5.003 -1.8761  1.3123  0.2941
 2814SOL    HW311255  -0.029   4.619   4.859  0.0021  0.9257 -0.2781
 2814SOL    MW411256   0.029   4.649   4.917 -0.4421  0.5597  0.3623
 2815SOL     OW11257   4.120   1.209   4.653 -0.2069 -0.1068 -0.0319
 2815SOL    HW211258   4.168   1.245   4.578  0.6082 -0.3062  0.3922
 2815SOL    HW311259   4.035   1.184   4.616  0.3256 -0.5656 -0.9837
 2815SOL    MW411260   4.115   1.211   4.638 -0.0291 -0.1936 -0.1015
 2816SOL     OW11261   2.952   0.805   4.546  0.6017  0.5174  0.3368
 2816SOL    HW211262   2.979   0.720   4.512 -1.3125 -0.2652  0.7061
 2816SOL    HW311263   2.927   0.788   4.637 -0.7201  1.2567  0.1328
 2816SOL    MW411264   2.952   0.791   4.554  0.1748  0.5117  0.3586
 2817SOL     OW11265   3.833   0.892   4.675  0.0585 -0.1923  0.3481
 2817SOL    HW211266   3.905   0.835   4.646  0.9286  0.2869  1.5263
 2817SOL    HW311267   3.768   0.832   4.711 -0.3960 -0.6804 -1.2545
 2817SOL    MW411268   3.834   0.877   4.676  0.1133 -0.1935  0.2921
 2818SOL     OW11269   2.550   1.518   4.609 -0.2117 -0.3533 -0.4756
 2818SOL    HW211270   2.504   1.440   4.638  0.2487 -0.3125  0.4012
 2818SOL    HW311271   2.599   1.491   4.532  0.0952 -0.9685 -0.0602
 2818SOL    MW411272   2.550   1.504   4.603 -0.1105 -0.4291 -0.3051
 2819SOL     OW11273   3.187   1.720   4.541 -0.2270 -0.5246 -0.0397
 2819SOL    HW211274   3.253   1.785   4.514 -0.2232  0.2824  1.8649
 2819SOL    HW311275   3.104   1.767   4.534 -0.2381 -0.3412  1.1855
 2819SOL    MW411276   3.185   1.735   4.536 -0.2279 -0.3939  0.3732
 2820SOL     OW11277   3.623   0.916   4.466  0.1378  0.4146  0.2907
 2820SOL    HW211278   3.699   0.883   4.514 -0.3953 -1.3056  0.0006
 2820SOL    HW311279   3.631   0.877   4.379 -1.5307 -0.5204  0.5264
 2820SOL    MW411280   3.634   0.906   4.461 -0.1527  0.0643  0.2835
 2821SOL     OW11281   4.467   2.477   4.559 -0.0860 -0.2322  0.1838
 2821SOL    HW211282   4.434   2.566   4.565 -0.0591 -0.0386 -2.1612
 2821SOL    HW311283   4.479   2.462   4.465  3.9172 -1.2158  0.7536
 2821SOL    MW411284   4.464   2.487   4.548  0.4457 -0.3365 -0.0504
 2822SOL     OW11285   2.702   3.389   4.618 -0.0594  0.4689 -0.1069
 2822SOL    HW211286   2.715   3.303   4.579  0.7189 -0.2168  1.6083
 2822SOL    HW311287   2.786   3.409   4.659 -0.8183  1.2166  1.0877
 2822SOL    MW411288   2.715   3.380   4.618 -0.0568  0.4771  0.2770
 2823SOL     OW11289   3.993   2.167   4.651 -0.0891 -0.1572 -0.6116
 2823SOL    HW211290   3.951   2.091   4.612  0.9763 -1.3979  0.6120
 2823SOL    HW311291   4.002   2.145   4.744  1.1987  1.0052 -0.4340
 2823SOL    MW411292   3.989   2.154   4.658  0.2214 -0.1675 -0.4267
 2824SOL     OW11293   3.591   2.487   4.544 -0.2172  1.0385 -0.0204
 2824SOL    HW211294   3.656   2.457   4.606  0.9951 -0.0717 -1.7890
 2824SOL    HW311295   3.514   2.506   4.597  0.4571 -0.8442  1.6865
 2824SOL    MW411296   3.589   2.486   4.559  0.0317  0.6436 -0.0285
 2825SOL     OW11297   2.964   1.858   4.485 -0.1179 -0.2385 -0.2986
 2825SOL    HW211298   2.960   1.925   4.417 -0.4983  0.5540  0.5005
 2825SOL    HW311299   2.874   1.850   4.516 -0.1651 -1.4676 -0.7108
 2825SOL    MW411300   2.952   1.866   4.480 -0.1743 -0.2961 -0.2475
 2826SOL     OW11301   3.824   2.418   4.659  0.2380  0.2693 -0.1923
 2826SOL    HW211302   3.875   2.338   4.665  0.1686  0.2663  0.3843
 2826SOL    HW311303   3.886   2.484   4.629  0.4963  0.1925  0.1833
 2826SOL    MW411304   3.839   2.416   4.656  0.2630  0.2588 -0.0667
 2827SOL     OW11305   2.948   2.833   4.477  0.3537 -0.2588 -0.2212
 2827SOL    HW211306   3.041   2.809   4.474  0.8419  1.3532  1.1774
 2827SOL    HW311307   2.910   2.775   4.543  0.4808 -0.5560 -0.4096
 2827SOL    MW411308   2.955   2.822   4.485  0.4349 -0.0853 -0.0616
 2828SOL     OW11309   4.116   2.848   4.632  0.2227 -0.1277 -0.1461
 2828SOL    HW211310   4.086   2.925   4.584 -0.8601 -0.0703  0.5887
 2828SOL    HW311311   4.206   2.834   4.603  0.3444  1.2675 -0.4546
 2828SOL    MW411312   4.124   2.856   4.622  0.0959  0.0640 -0.0898
 2829SOL     OW11313   3.658   2.987   4.482  0.0005  0.0762 -0.0048
 2829SOL    HW211314   3.725   3.039   4.526 -0.9643  1.1106  0.2769
 2829SOL    HW311315   3.630   3.041   4.409  0.4961 -0.9791 -0.9819
 2829SOL    MW411316   3.663   3.001   4.479 -0.0614  0.0734 -0.0965
 2830SOL     OW11317   3.625   3.791   4.522  0.1051  0.1147  0.5944
 2830SOL    HW211318   3.540   3.754   4.497 -0.0591 -0.0246  1.3476
 2830SOL    HW311319   3.688   3.721   4.504 -0.2389 -0.6701  2.2926
 2830SOL    MW411320   3.622   3.777   4.516  0.0380 -0.0072  0.9178
 2831SOL     OW11321   3.676   3.325   4.515 -0.3912 -0.3766 -0.3253
 2831SOL    HW211322   3.740   3.279   4.570  1.0282  2.1274  0.1982
 2831SOL    HW311323   3.675   3.276   4.433 -0.7085 -2.7330  1.0535
 2831SOL    MW411324   3.684   3.312   4.512 -0.2458 -0.3571 -0.0743
 2832SOL     OW11325   3.155   4.285   4.584  0.2078 -0.1111  0.9075
 2832SOL    HW211326   3.182   4.195   4.599 -0.3926 -0.7167 -1.4741
 2832SOL    HW311327   3.226   4.323   4.532  0.4116  0.8003  1.8100
 2832SOL    MW411328   3.168   4.278   4.579  0.1554 -0.0707  0.7124
 2833SOL     OW11329   3.355   4.442   4.475 -0.2307 -0.1154  0.6637
 2833SOL    HW211330   3.444   4.409   4.489  0.1165 -0.0503 -1.2151
 2833SOL    HW311331   3.351   4.523   4.524  0.4469 -0.5865  1.5075
 2833SOL    MW411332   3.366   4.448   4.483 -0.0955 -0.1690  0.5272
 2834SOL     OW11333   4.380   2.751   4.564 -0.0040 -0.0464 -0.3473
 2834SOL    HW211334   4.439   2.820   4.593  0.7518 -0.7186 -0.2762
 2834SOL    HW311335   4.371   2.766   4.470 -0.5908  0.7116 -0.1752
 2834SOL    MW411336   4.386   2.762   4.555  0.0183 -0.0351 -0.3152
 2835SOL     OW11337   3.563   4.560   4.759  0.1603  0.2792 -0.3233
 2835SOL    HW211338   3.468   4.575   4.754 -0.0379 -0.8548 -0.0545
 2835SOL    HW311339   3.600   4.615   4.690 -0.7558  0.2074 -0.8800
 2835SOL    MW411340   3.555   4.569   4.750  0.0132  0.1201 -0.3613
 2836SOL     OW11341   3.329   0.512   4.449 -0.3323  0.4610 -0.2623
 2836SOL    HW211342   3.348   0.506   4.355 -0.9170 -1.8466 -0.2543
 2836SOL    HW311343   3.234   0.519   4.454 -0.4403 -1.3230  0.2369
 2836SOL    MW411344   3.319   0.512   4.437 -0.4237 -0.0788 -0.1954
 2837SOL     OW11345   3.207   0.923   4.491 -0.0815  0.0972  0.5473
 2837SOL    HW211346   3.261   0.861   4.540 -0.0251  1.0427  1.6879
 2837SOL    HW311347   3.118   0.904   4.519 -0.1818 -0.3064 -0.0430
 2837SOL    MW411348   3.203   0.912   4.501 -0.0873  0.1687  0.6199
 2838SOL     OW11349   3.684   1.459   4.488 -0.1038  0.2896  0.2151
 2838SOL    HW211350   3.658   1.367   4.496  1.0254 -0.0018  0.7043
 2838SOL    HW311351   3.774   1.461   4.521  0.3522  1.3255 -1.0456
 2838SOL    MW411352   3.693   1.447   4.493  0.1054  0.3878  0.1133
 2839SOL     OW11353   4.010   1.126   4.305 -0.4060  0.2825 -0.2421
 2839SOL    HW211354   3.946   1.155   4.240 -1.8535  0.0296  1.0457
 2839SOL    HW311355   3.963   1.127   4.388  1.1690 -0.2354  0.6907
 2839SOL    MW411356   3.996   1.130   4.308 -0.3892  0.1808  0.0509
 2840SOL     OW11357   3.827   0.533   4.521  0.4637  0.3644  0.0180
 2840SOL    HW211358   3.840   0.497   4.433  0.2306 -1.1072  0.5620
 2840SOL    HW311359   3.826   0.456   4.578  0.4494  1.2888  1.2946
 2840SOL    MW411360   3.829   0.518   4.517  0.4310  0.2922  0.2582
 2841SOL     OW11361   3.628   0.102   4.554  0.6901  0.0784 -0.4917
 2841SOL    HW211362   3.575   0.180   4.569 -1.7909 -1.8119  1.0931
 2841SOL    HW311363   3.617   0.082   4.461 -1.3745 -0.2222 -0.2079
 2841SOL    MW411364   3.620   0.109   4.544  0.0904 -0.2106 -0.2452
 2842SOL     OW11365   3.756   2.706   4.478 -0.2688 -0.3767 -0.2527
 2842SOL    HW211366   3.699   2.635   4.508 -0.1756 -1.2321 -2.0118
 2842SOL    HW311367   3.707   2.786   4.497 -0.6553 -0.9467  1.1679
 2842SOL    MW411368   3.742   2.707   4.484 -0.3075 -0.5647 -0.2974
 2843SOL     OW11369   3.261   2.487   4.547 -0.0275 -0.7414 -0.3086
 2843SOL    HW211370   3.219   2.435   4.615 -0.2834  0.2315  0.2929
 2843SOL    HW311371   3.199   2.485   4.474 -1.9927  2.1350  1.1985
 2843SOL    MW411372   3.247   2.480   4.546 -0.3205 -0.2336 -0.0304
 2844SOL     OW11373   0.011   1.597   4.553 -0.1107  0.0767  0.1343
 2844SOL    HW211374  -0.070   1.605   4.603 -0.5711  0.0056 -0.6018
 2844SOL    HW311375  -0.008   1.637   4.468  0.8559  0.7384  0.2248
 2844SOL    MW411376  -0.002   1.603   4.548 -0.0439  0.1546  0.0491
 2845SOL     OW11377   4.302   1.344   4.494 -0.0770 -0.3448  0.2014
 2845SOL    HW211378   4.386   1.328   4.537  0.0401 -1.5521 -0.4317
 2845SOL    HW311379   4.311   1.302   4.408  0.2703  3.3208 -1.6688
 2845SOL    MW411380   4.315   1.336   4.488 -0.0157 -0.0205 -0.1289
 2846SOL     OW11381   4.473   1.667   4.277 -0.6854 -0.1957 -0.4816
 2846SOL    HW211382   4.407   1.602   4.251  0.1344 -0.8930 -0.8533
 2846SOL    HW311383   4.445   1.747   4.234 -1.5832 -0.3496 -0.2104
 2846SOL    MW411384   4.461   1.669   4.268 -0.6957 -0.3080 -0.4948
 2847SOL     OW11385   3.899   1.952   4.513  0.1039  0.2529  0.4667
 2847SOL    HW211386   3.830   1.892   4.541  0.1712  0.0100  0.1045
 2847SOL    HW311387   3.975   1.896   4.500  0.0560  0.3660 -0.2728
 2847SOL    MW411388   3.900   1.937   4.515  0.1065  0.2358  0.3214
 2848SOL     OW11389   0.056   2.227   4.682  0.0352  0.3414  0.3298
 2848SOL    HW211390   0.044   2.241   4.776  0.0979  0.7112  0.2827
 2848SOL    HW311391   0.020   2.305   4.641  0.7022  0.5283  0.0878
 2848SOL    MW411392   0.050   2.239   4.689  0.1315  0.4148  0.2917
 2849SOL     OW11393   3.349   3.017   4.586  0.2241 -0.0871  0.2049
 2849SOL    HW211394   3.432   2.986   4.549 -0.0132 -1.7095  0.9840
 2849SOL    HW311395   3.288   2.944   4.572 -0.6949  0.5341  0.9222
 2849SOL    MW411396   3.352   3.003   4.579  0.0716 -0.2192  0.4023
 2850SOL     OW11397   4.017   2.607   4.514 -0.2251  0.1100 -0.0471
 2850SOL    HW211398   4.058   2.673   4.570 -0.1762 -0.6049  0.7642
 2850SOL    HW311399   3.931   2.642   4.494 -1.2270 -0.7896  2.5740
 2850SOL    MW411400   4.011   2.620   4.519 -0.3509 -0.1030  0.4058
 2851SOL     OW11401   2.755   3.133   4.501 -0.0382  0.0383  0.4801
 2851SOL    HW211402   2.839   3.087   4.493  0.2658  0.8938 -1.4520
 2851SOL    HW311403   2.742   3.176   4.416 -1.0405  2.3101  1.7284
 2851SOL    MW411404   2.764   3.133   4.488 -0.1303  0.4509  0.3899
 2852SOL     OW11405   3.845   3.133   4.645  0.1855 -0.1794  0.0074
 2852SOL    HW211406   3.871   3.131   4.737  1.0588  1.1262 -0.1959
 2852SOL    HW311407   3.927   3.129   4.597 -0.1464  1.1952 -0.6911
 2852SOL    MW411408   3.859   3.132   4.651  0.2570  0.1742 -0.1116
 2853SOL     OW11409   2.249   3.380   4.841 -0.0802 -0.3449  0.3616
 2853SOL    HW211410   2.297   3.461   4.825 -1.2143  0.0232 -1.2954
 2853SOL    HW311411   2.316   3.312   4.838  0.6811  0.3805  0.4162
 2853SOL    MW411412   2.264   3.382   4.839 -0.1294 -0.2007  0.1502
 2854SOL     OW11413   3.823   3.588   4.212 -0.2869 -0.7452 -0.1766
 2854SOL    HW211414   3.822   3.592   4.307  0.9737  1.1626 -0.2178
 2854SOL    HW311415   3.906   3.546   4.190  0.6270  1.1544 -0.4641
 2854SOL    MW411416   3.834   3.583   4.221 -0.0000 -0.2429 -0.2200
 2855SOL     OW11417   0.503   3.338   4.521  0.0098 -0.4409  0.0589
 2855SOL    HW211418   0.571   3.271   4.533 -0.0976 -0.4768  0.4903
 2855SOL    HW311419   0.551   3.420   4.511  0.0832 -0.1087  2.7081
 2855SOL    MW411420   0.518   3.340   4.521  0.0053 -0.4018  0.4653
 2856SOL     OW11421   4.293   4.565   4.737 -0.4122  0.3506 -0.0751
 2856SOL    HW211422   4.198   4.562   4.740 -0.4450 -0.0167 -1.2540
 2856SOL    HW311423   4.319   4.480   4.700  0.4353 -0.0387  1.3634
 2856SOL    MW411424   4.284   4.553   4.733 -0.3047  0.2508 -0.0409
 2857SOL     OW11425   3.794   4.400   4.697 -0.1838 -0.3568  0.2181
 2857SOL    HW211426   3.871   4.457   4.693 -0.2583 -0.3350 -1.1841
 2857SOL    HW311427   3.731   4.450   4.749  0.3511  0.0955  0.4525
 2857SOL    MW411428   3.796   4.414   4.703 -0.1230 -0.2942  0.0640
 2858SOL     OW11429   2.720   4.553   4.570  0.1014  0.2126 -0.1900
 2858SOL    HW211430   2.693   4.561   4.478  1.5715  0.7442 -0.5919
 2858SOL    HW311431   2.778   4.477   4.571  0.1854  0.2830  0.2655
 2858SOL    MW411432   2.724   4.544   4.558  0.3064  0.2920 -0.1829
 2859SOL     OW11433   3.403   0.759   4.589 -0.1208  0.4908 -0.3839
 2859SOL    HW211434   3.458   0.811   4.531 -0.7788  1.5402 -0.0808
 2859SOL    HW311435   3.385   0.679   4.540  2.6992 -0.4536 -0.0061
 2859SOL    MW411436   3.408   0.755   4.575  0.1645  0.5047 -0.2940
 2860SOL     OW11437   3.660   0.677   4.682 -0.5099 -0.3947  0.2455
 2860SOL    HW211438   3.692   0.614   4.618  0.1659 -0.6495  0.8395
 2860SOL    HW311439   3.572   0.699   4.651  0.0098 -0.0947 -1.0881
 2860SOL    MW411440   3.653   0.672   4.669 -0.3522 -0.3887  0.1479
 2861SOL     OW11441   0.106   0.851   4.556  0.0073  0.1240  0.1056
 2861SOL    HW211442   0.072   0.833   4.468  0.0710 -0.2731  0.1630
 2861SOL    HW311443   0.029   0.881   4.605  0.1841  1.4304 -0.3850
 2861SOL    MW411444   0.091   0.853   4.551  0.0391  0.2440  0.0485
 2862SOL     OW11445   3.856   0.275   4.616 -0.0319 -0.0561 -0.3866
 2862SOL    HW211446   3.877   0.239   4.702 -2.8401  1.7594  1.1437
 2862SOL    HW311447   3.793   0.214   4.579  1.3053 -0.9284 -1.2757
 2862SOL    MW411448   3.850   0.263   4.623 -0.2260  0.0683 -0.3020
 2863SOL     OW11449   0.042   0.265   4.834  0.2014  0.0953  0.4182
 2863SOL    HW211450   0.067   0.184   4.879 -0.1589 -0.4036 -0.2599
 2863SOL    HW311451   0.124   0.313   4.823  0.4722 -0.3393  0.5294
 2863SOL    MW411452   0.056   0.261   4.838  0.1896 -0.0278  0.3434
 2864SOL     OW11453   3.428   1.843   4.445  0.3969 -0.3883  0.1296
 2864SOL    HW211454   3.499   1.788   4.412 -0.1818 -0.1275 -1.5601
 2864SOL    HW311455   3.433   1.923   4.393 -0.1122  0.3058  1.1239
 2864SOL    MW411456   3.438   1.846   4.434  0.2534 -0.2623  0.0379
 2865SOL     OW11457   0.380   0.966   4.511  0.0699 -0.1873  0.0357
 2865SOL    HW211458   0.296   0.926   4.529 -0.1041  0.2187  0.1406
 2865SOL    HW311459   0.363   1.031   4.443  0.3913 -0.4599 -0.3060
 2865SOL    MW411460   0.367   0.970   4.505  0.0893 -0.1697  0.0044
 2866SOL     OW11461   0.478   2.143   4.610 -0.0267  0.3152  0.3318
 2866SOL    HW211462   0.508   2.120   4.698  1.6184 -1.0960 -0.5332
 2866SOL    HW311463   0.490   2.237   4.603  1.9309  0.1283  0.9050
 2866SOL    MW411464   0.484   2.152   4.620  0.4486  0.1043  0.2933
 2867SOL     OW11465   4.132   1.821   4.497 -0.5439 -0.2196  0.0756
 2867SOL    HW211466   4.169   1.742   4.536  0.4926 -0.0381 -0.5079
 2867SOL    HW311467   4.199   1.889   4.512 -1.1837  0.4184  0.0935
 2867SOL    MW411468   4.146   1.820   4.504 -0.4916 -0.1115  0.0010
 2868SOL     OW11469   3.242   2.790   4.466  0.6211  0.8550 -0.0080
 2868SOL    HW211470   3.290   2.802   4.384  1.2464  0.5891  0.3169
 2868SOL    HW311471   3.261   2.700   4.492  1.1479  1.2287  0.8974
 2868SOL    MW411472   3.250   2.780   4.459  0.7731  0.8692  0.1543
 2869SOL     OW11473   4.269   2.076   4.256 -0.1851  0.1570  0.1899
 2869SOL    HW211474   4.197   2.019   4.228 -0.4315  1.1730 -1.2893
 2869SOL    HW311475   4.233   2.125   4.330 -1.0503  0.7162 -0.5938
 2869SOL    MW411476   4.255   2.075   4.262 -0.3318  0.3648 -0.1087
 2870SOL     OW11477   4.093   1.443   4.826  0.1223  0.1558  0.4944
 2870SOL    HW211478   4.108   1.357   4.788 -1.7710  0.0860 -0.1261
 2870SOL    HW311479   4.033   1.428   4.899  0.4787  0.8295  0.9333
 2870SOL    MW411480   4.087   1.430   4.831 -0.0805  0.2355  0.4705
 2871SOL     OW11481   0.050   2.958   4.673 -0.2855 -0.0385  0.3150
 2871SOL    HW211482   0.120   2.913   4.627  0.6040  1.3880  0.2276
 2871SOL    HW311483   0.041   3.041   4.626 -0.9084  0.4746  1.3350
 2871SOL    MW411484   0.058   2.963   4.661 -0.2503  0.2174  0.4380
 2872SOL     OW11485   3.704   1.744   4.586  0.2615 -0.0252 -0.4991
 2872SOL    HW211486   3.708   1.656   4.550  1.9116 -0.4809  0.7333
 2872SOL    HW311487   3.613   1.753   4.616 -0.1859 -0.9145 -1.5556
 2872SOL    MW411488   3.693   1.733   4.586  0.4202 -0.2027 -0.4759
 2873SOL     OW11489   0.249   2.825   4.506  0.1492 -0.9448  0.6272
 2873SOL    HW211490   0.220   2.822   4.414 -0.6622 -0.2290  0.8557
 2873SOL    HW311491   0.302   2.904   4.512 -0.1729 -0.7457  0.8786
 2873SOL    MW411492   0.252   2.835   4.495 -0.0004 -0.8241  0.6905
 2874SOL     OW11493   4.070   3.470   4.601 -0.3379 -0.6336 -0.0551
 2874SOL    HW211494   4.125   3.548   4.604  0.6416 -1.3580  1.4408
 2874SOL    HW311495   4.132   3.397   4.593 -1.1994 -1.3329 -0.5482
 2874SOL    MW411496   4.085   3.471   4.600 -0.3223 -0.8215  0.0772
 2875SOL     OW11497   4.269   3.267   4.613  0.6071 -0.4191  0.2042
 2875SOL    HW211498   4.357   3.266   4.574  0.7620  0.5017  0.5122
 2875SOL    HW311499   4.274   3.205   4.685  0.5397 -1.5646 -0.7524
 2875SOL    MW411500   4.281   3.259   4.617  0.6186 -0.4487  0.1186
 2876SOL     OW11501   0.049   3.204   4.542 -0.0118 -0.2972  0.3126
 2876SOL    HW211502   0.076   3.295   4.551 -0.1327 -0.3095  0.8256
 2876SOL    HW311503   0.060   3.184   4.449 -1.5992  0.7348 -0.1149
 2876SOL    MW411504   0.054   3.213   4.531 -0.2372 -0.1627  0.3239
 2877SOL     OW11505   3.522   4.070   4.531 -0.2672  0.2334  0.2350
 2877SOL    HW211506   3.568   4.154   4.534  1.1706 -0.5802  1.6138
 2877SOL    HW311507   3.590   4.004   4.547 -1.6457 -1.0931  0.8234
 2877SOL    MW411508   3.537   4.072   4.534 -0.2594 -0.0490  0.4945
 2878SOL     OW11509   3.278   4.596   4.689  0.6691  0.0880 -0.1023
 2878SOL    HW211510   3.247   4.668   4.634 -0.1687 -0.1100  0.1031
 2878SOL    HW311511   3.225   4.521   4.663  1.3435 -0.3912 -0.1171
 2878SOL    MW411512   3.267   4.595   4.678  0.6476 -0.0013 -0.0771
 2879SOL     OW11513   4.073   3.119   4.507  0.2601 -0.0058  0.0666
 2879SOL    HW211514   4.132   3.186   4.542  0.8956  0.1865 -1.3532
 2879SOL    HW311515   4.067   3.139   4.414 -2.1098  0.0173  0.1934
 2879SOL    MW411516   4.080   3.131   4.499  0.0313  0.0226 -0.1040
 2880SOL     OW11517   3.171   0.157   4.534  0.0579  0.3649 -0.2477
 2880SOL    HW211518   3.104   0.206   4.581  0.1048  0.5203 -0.3457
 2880SOL    HW311519   3.252   0.207   4.547  0.5468 -0.8045  1.4652
 2880SOL    MW411520   3.173   0.170   4.542  0.1286  0.2311 -0.0346
 2881SOL     OW11521   4.340   4.359   4.338  0.0493  0.0871  0.4816
 2881SOL    HW211522   4.422   4.332   4.296 -0.7980 -0.4705 -0.8508
 2881SOL    HW311523   4.364   4.378   4.429  1.2485 -2.2042  0.6648
 2881SOL    MW411524   4.354   4.358   4.345  0.0957 -0.2888  0.3300
   4.49070   4.66690  10.00000
