Gromacs Runs On Most of All Computer Systems in water
11524
    1DMSO    SD    1   0.536   0.658   4.884 -0.3530 -0.3883 -0.0773
    1DMSO   CD1    2   0.552   0.622   5.059  0.4280 -0.2918 -0.4335
    1DMSO    OD    3   0.666   0.731   4.841 -0.3764 -0.3511 -0.2294
    1DMSO   CD2    4   0.553   0.487   4.826 -0.6093  0.0594 -0.1900
    2SOL     OW    5   1.150   0.400   0.670 -0.1321 -0.2850 -0.2066
    2SOL    HW2    6   1.119   0.480   0.713  1.1956  0.5483 -0.7954
    2SOL    HW3    7   1.188   0.349   0.742 -0.0041  0.0814 -0.0104
    2SOL    MW4    8   1.151   0.404   0.685  0.0599 -0.1267 -0.2584
    3SOL     OW    9   2.063   2.283   0.865 -0.6136 -0.3206 -0.1413
    3SOL    HW2   10   2.001   2.253   0.799 -1.8595  0.9670  0.3902
    3SOL    HW3   11   2.008   2.296   0.943  0.6507 -0.8547  0.8441
    3SOL    MW4   12   2.047   2.281   0.867 -0.6112 -0.2212  0.0589
    4SOL     OW   13   1.450   1.537   0.339  0.1056 -0.1790 -0.1509
    4SOL    HW2   14   1.445   1.505   0.249 -0.7980  0.8223 -0.4733
    4SOL    HW3   15   1.380   1.489   0.385 -0.1676  0.1195 -0.2507
    4SOL    MW4   16   1.440   1.526   0.333 -0.0497 -0.0075 -0.2066
    5SOL     OW   17   0.444   0.180   0.729 -0.0266 -0.2510  0.0180
    5SOL    HW2   18   0.519   0.139   0.773 -0.9732 -1.2072  0.7791
    5SOL    HW3   19   0.457   0.274   0.742  0.2028 -0.4791  1.5846
    5SOL    MW4   20   0.455   0.187   0.737 -0.1212 -0.4072  0.3251
    6SOL     OW   21   1.333   4.372   0.210 -0.3531  0.1947 -0.4142
    6SOL    HW2   22   1.245   4.408   0.224  0.1040  1.5396 -0.9914
    6SOL    HW3   23   1.389   4.421   0.270  0.1441 -0.1353 -0.6095
    6SOL    MW4   24   1.329   4.383   0.220 -0.2272  0.3286 -0.5161
    7SOL     OW   25   4.306   0.768   0.851  0.5618 -0.1199  0.4653
    7SOL    HW2   26   4.215   0.784   0.828  0.0578 -1.3124  1.6009
    7SOL    HW3   27   4.322   0.677   0.824  0.8885 -0.4936  1.9044
    7SOL    MW4   28   4.296   0.758   0.844  0.5384 -0.3265  0.8050
    8SOL     OW   29   1.019   3.906   0.295 -0.2222 -0.4354  0.1808
    8SOL    HW2   30   0.989   3.980   0.348 -0.8264  0.1280 -0.9185
    8SOL    HW3   31   0.973   3.831   0.330 -1.2952  0.0796 -0.1097
    8SOL    MW4   32   1.009   3.906   0.307 -0.4435 -0.2931 -0.0026
    9SOL     OW   33   3.179   3.759   0.435  0.6761  0.3976  0.2272
    9SOL    HW2   34   3.168   3.832   0.375 -2.2828  0.1257  0.3803
    9SOL    HW3   35   3.274   3.745   0.439  1.0532  1.8401 -2.6307
    9SOL    MW4   36   3.190   3.767   0.428  0.3354  0.5520 -0.1297
   10SOL     OW   37   1.230   3.453   0.259  0.3221  0.0788  0.2136
   10SOL    HW2   38   1.153   3.427   0.309  0.8195  1.3257  1.6827
   10SOL    HW3   39   1.208   3.432   0.168 -2.1364  1.3029  0.4830
   10SOL    MW4   40   1.217   3.447   0.254  0.0634  0.4048  0.4430
   11SOL     OW   41   3.602   3.296   0.489  0.1775  0.3176 -0.7060
   11SOL    HW2   42   3.620   3.210   0.452 -0.6917  0.3983 -1.3244
   11SOL    HW3   43   3.593   3.280   0.583  2.1060  0.0742 -0.5527
   11SOL    MW4   44   3.603   3.283   0.497  0.3173  0.2961 -0.7674
   12SOL     OW   45   0.984   3.377   0.388 -0.2557  0.0902 -0.0308
   12SOL    HW2   46   1.019   3.289   0.400 -0.3724 -0.0041 -0.3758
   12SOL    HW3   47   0.894   3.364   0.357 -0.3561  0.3310  0.1486
   12SOL    MW4   48   0.977   3.364   0.385 -0.2844  0.1095 -0.0527
   13SOL     OW   49   0.441   1.689   0.746 -0.1529  0.1010 -0.9034
   13SOL    HW2   50   0.441   1.783   0.765 -1.5105 -0.1220  0.2097
   13SOL    HW3   51   0.403   1.682   0.658 -1.2048  0.4913 -0.4819
   13SOL    MW4   52   0.436   1.700   0.737 -0.4708  0.1230 -0.7009
   14SOL     OW   53   0.156   0.055   0.350  0.2796  0.3786  0.2322
   14SOL    HW2   54   0.236   0.062   0.402 -0.3831 -0.4270  1.3992
   14SOL    HW3   55   0.161  -0.032   0.310 -0.1973  0.1590  0.6405
   14SOL    MW4   56   0.167   0.045   0.352  0.1292  0.2434  0.4400
   15SOL     OW   57   0.677   3.695   0.441  0.2800 -0.6584  0.4599
   15SOL    HW2   58   0.772   3.707   0.429 -0.0349  0.8797 -0.6440
   15SOL    HW3   59   0.665   3.697   0.536  1.3957 -1.2122  0.6263
   15SOL    MW4   60   0.688   3.697   0.452  0.3857 -0.5286  0.3362
   16SOL     OW   61   2.253   2.477   0.534  0.0351  0.4681 -0.0211
   16SOL    HW2   62   2.181   2.534   0.509 -0.0088  1.4947  2.3433
   16SOL    HW3   63   2.331   2.520   0.500 -0.3159  0.0811 -1.3448
   16SOL    MW4   64   2.254   2.490   0.526 -0.0170  0.5525  0.1162
   17SOL     OW   65   0.876   4.303   1.127  0.0813 -0.0933  0.1852
   17SOL    HW2   66   0.906   4.214   1.146  2.1508  0.6322  0.4215
   17SOL    HW3   67   0.863   4.304   1.033  0.8196 -0.4271  0.0754
   17SOL    MW4   68   0.878   4.291   1.117  0.4518 -0.0416  0.2019
   18SOL     OW   69   1.356   2.143   0.786 -0.2730  0.2414  0.1685
   18SOL    HW2   70   1.262   2.153   0.801 -0.2775  2.0841 -0.9139
   18SOL    HW3   71   1.364   2.132   0.691  0.6076 -0.0903  0.2741
   18SOL    MW4   72   1.345   2.143   0.775 -0.1574  0.4408  0.0396
   19SOL     OW   73   3.381   3.114   0.897 -0.3021 -0.3560  0.4811
   19SOL    HW2   74   3.375   3.020   0.881 -2.6297 -0.1058 -0.3644
   19SOL    HW3   75   3.373   3.122   0.992 -0.9673 -0.9658  0.4845
   19SOL    MW4   76   3.379   3.103   0.907 -0.6969 -0.4035  0.3700
   20SOL     OW   77   0.249   3.140   0.808 -0.4896  0.0630 -0.5484
   20SOL    HW2   78   0.163   3.182   0.805 -1.2394 -1.4673 -0.7027
   20SOL    HW3   79   0.251   3.095   0.892  0.2495  0.2717 -0.4489
   20SOL    MW4   80   0.238   3.140   0.819 -0.4910 -0.1114 -0.5556
   21SOL     OW   81   4.030   0.094   0.763 -0.4503 -0.3081  0.1648
   21SOL    HW2   82   4.112   0.051   0.791  0.2786  0.6459 -0.4651
   21SOL    HW3   83   4.014   0.059   0.676 -0.1569  0.2687 -0.1236
   21SOL    MW4   84   4.039   0.084   0.755 -0.3154 -0.1061  0.0436
   22SOL     OW   85   3.519   0.981   0.486  0.5349 -0.1258  0.0641
   22SOL    HW2   86   3.424   0.971   0.489  0.6398 -1.0759  0.6128
   22SOL    HW3   87   3.548   0.966   0.576  1.1719  0.5558 -0.0207
   22SOL    MW4   88   3.510   0.977   0.499  0.6328 -0.1612  0.1253
   23SOL     OW   89   2.301   0.892   0.785 -0.4987  0.1607  0.2358
   23SOL    HW2   90   2.323   0.972   0.834 -0.7996  1.4927 -1.7405
   23SOL    HW3   91   2.381   0.839   0.788  1.0023  2.2300 -1.6431
   23SOL    MW4   92   2.314   0.896   0.792 -0.3403  0.6094 -0.2729
   24SOL     OW   93   1.799   2.006   0.516  0.0698 -0.2434 -0.0074
   24SOL    HW2   94   1.761   1.927   0.478 -1.2697 -0.3281  1.4590
   24SOL    HW3   95   1.786   2.073   0.449  0.4916 -1.0595 -0.9336
   24SOL    MW4   96   1.792   2.004   0.502 -0.0513 -0.3622  0.0639
   25SOL     OW   97   0.412   2.148   0.540  0.3977 -0.3196 -0.1938
   25SOL    HW2   98   0.350   2.143   0.613 -0.6879  1.5776 -0.9258
   25SOL    HW3   99   0.473   2.218   0.565  2.8454 -2.7699  0.9154
   25SOL    MW4  100   0.412   2.157   0.553  0.5774 -0.3926 -0.1440
   26SOL     OW  101   0.458   0.170   0.462  0.3834 -0.0332 -0.4248
   26SOL    HW2  102   0.466   0.165   0.557 -0.1633  2.1815 -0.2442
   26SOL    HW3  103   0.475   0.261   0.440 -0.5006 -0.2898 -2.3471
   26SOL    MW4  104   0.461   0.181   0.472  0.1947  0.2252 -0.6546
   27SOL     OW  105   3.054   1.357   0.443  0.1727  0.3285  0.3653
   27SOL    HW2  106   2.974   1.402   0.416 -0.2500  0.9245  2.5175
   27SOL    HW3  107   3.043   1.267   0.412 -0.6519  0.7839 -0.6813
   27SOL    MW4  108   3.042   1.351   0.435  0.0081  0.4672  0.5112
   28SOL     OW  109   4.257   4.659   0.849 -0.2822  0.0884  0.2973
   28SOL    HW2  110   4.266   4.641   0.943 -0.1124 -1.3969  0.0143
   28SOL    HW3  111   4.337   4.707   0.827 -0.7012  1.1633  1.0655
   28SOL    MW4  112   4.269   4.663   0.858 -0.3151  0.0342  0.3613
   29SOL     OW  113   2.747   0.727   0.400  0.2671  0.6162  0.0201
   29SOL    HW2  114   2.742   0.801   0.461 -0.0785  0.1400  0.5726
   29SOL    HW3  115   2.658   0.691   0.399  0.4855  0.0756 -0.0849
   29SOL    MW4  116   2.734   0.732   0.408  0.2503  0.4820  0.0791
   30SOL     OW  117   0.003   0.363   0.846 -0.0327  0.3237  0.1705
   30SOL    HW2  118   0.016   0.363   0.941  1.9751  0.9403 -0.1009
   30SOL    HW3  119  -0.084   0.401   0.835  0.2979  1.5864  1.6954
   30SOL    MW4  120  -0.007   0.368   0.857  0.2758  0.5717  0.3359
   31SOL     OW  121   0.653   2.309   0.884  0.2367  0.1387 -0.1854
   31SOL    HW2  122   0.662   2.330   0.977 -0.4369 -0.4951  0.0309
   31SOL    HW3  123   0.728   2.351   0.843  2.5127 -2.4298  1.1169
   31SOL    MW4  124   0.664   2.317   0.891  0.4481 -0.2838  0.0149
   32SOL     OW  125   2.049   0.492   0.736 -0.1085  0.0136 -0.1991
   32SOL    HW2  126   2.042   0.517   0.644  2.7349  0.4218 -0.3235
   32SOL    HW3  127   2.086   0.569   0.780 -0.8330 -0.4043  1.1875
   32SOL    MW4  128   2.053   0.506   0.730  0.1710  0.0123 -0.0326
   33SOL     OW  129   2.979   1.325   0.712 -0.5854 -0.2490  0.3839
   33SOL    HW2  130   3.006   1.333   0.621 -1.6015 -2.3754 -0.1432
   33SOL    HW3  131   2.985   1.414   0.747  1.8228  0.2383 -1.1618
   33SOL    MW4  132   2.983   1.338   0.705 -0.4017 -0.4653  0.1104
   34SOL     OW  133   2.045   0.766   1.136 -0.4193 -0.0164 -0.0016
   34SOL    HW2  134   2.058   0.747   1.043 -0.1335  0.8766 -0.1468
   34SOL    HW3  135   2.034   0.680   1.176 -0.6234 -0.4067 -0.8724
   34SOL    MW4  136   2.046   0.752   1.129 -0.4085  0.0500 -0.1356
   35SOL     OW  137   2.162   1.273   0.525 -0.1088 -0.2402  0.1404
   35SOL    HW2  138   2.171   1.182   0.498  1.9003 -0.0468  0.0993
   35SOL    HW3  139   2.136   1.268   0.617 -0.1332 -0.8510  0.0999
   35SOL    MW4  140   2.160   1.261   0.534  0.1530 -0.2952  0.1297
   36SOL     OW  141   2.719   3.661   0.647 -0.3489 -0.3024  0.0546
   36SOL    HW2  142   2.628   3.635   0.666 -1.3015  2.3803 -0.6358
   36SOL    HW3  143   2.750   3.700   0.728 -0.1420 -0.2957 -0.0292
   36SOL    MW4  144   2.711   3.663   0.660 -0.4473  0.0524 -0.0476
   37SOL     OW  145   1.317   2.658   0.880  0.1812 -0.5859  0.7233
   37SOL    HW2  146   1.308   2.658   0.975  0.3502 -0.7482  0.7397
   37SOL    HW3  147   1.322   2.565   0.856 -0.6073 -0.5742  0.4864
   37SOL    MW4  148   1.317   2.646   0.889  0.0994 -0.6058  0.6942
   38SOL     OW  149   1.197   1.128   0.420 -0.0905  0.0094 -0.5358
   38SOL    HW2  150   1.217   1.219   0.444 -0.5859  0.3520 -1.3932
   38SOL    HW3  151   1.144   1.136   0.341 -1.3694 -0.9789  0.2071
   38SOL    MW4  152   1.193   1.141   0.413 -0.3246 -0.0758 -0.5509
   39SOL     OW  153   4.080   1.934   0.390 -0.3518 -0.2877  0.1136
   39SOL    HW2  154   4.164   1.960   0.427 -0.1684  0.4304 -0.7781
   39SOL    HW3  155   4.084   1.839   0.384 -0.4320 -0.4311  2.0133
   39SOL    MW4  156   4.091   1.925   0.394 -0.3382 -0.2118  0.2466
   40SOL     OW  157   0.218   2.763   0.647 -0.3338 -0.1261 -0.3232
   40SOL    HW2  158   0.235   2.683   0.598  1.5395 -0.6590  1.1396
   40SOL    HW3  159   0.142   2.743   0.702 -0.6747 -0.4585 -0.9225
   40SOL    MW4  160   0.210   2.750   0.648 -0.1317 -0.2403 -0.2093
   41SOL     OW  161   0.597   0.930   0.675  0.7388  0.3863  0.2041
   41SOL    HW2  162   0.544   1.008   0.691 -0.4428 -0.5574  1.0274
   41SOL    HW3  163   0.600   0.923   0.579  1.6576  1.9501  0.0990
   41SOL    MW4  164   0.590   0.939   0.664  0.7041  0.4681  0.2989
   42SOL     OW  165   3.838   4.367   0.766  0.3458 -0.6268  0.1860
   42SOL    HW2  166   3.822   4.398   0.676 -0.5504 -0.6233  0.3446
   42SOL    HW3  167   3.821   4.443   0.821 -0.8865 -1.1213  0.4976
   42SOL    MW4  168   3.834   4.381   0.761  0.0650 -0.6916  0.2480
   43SOL     OW  169   0.021   1.663   0.847 -0.2087 -0.0896 -0.6639
   43SOL    HW2  170  -0.069   1.634   0.862  0.2648 -1.9831 -1.4536
   43SOL    HW3  171   0.021   1.698   0.758 -0.5160  1.3858 -0.1039
   43SOL    MW4  172   0.009   1.664   0.838 -0.1868 -0.1447 -0.6942
   44SOL     OW  173   2.969   0.576   0.458 -0.5121 -0.1306 -0.5403
   44SOL    HW2  174   2.964   0.553   0.551  1.3027  0.8814 -0.1802
   44SOL    HW3  175   2.891   0.629   0.442 -0.4404  0.3237  0.5988
   44SOL    MW4  176   2.958   0.580   0.468 -0.2632  0.0628 -0.3425
   45SOL     OW  177   1.418   2.564   0.531 -0.5568 -0.1316  0.9117
   45SOL    HW2  178   1.463   2.648   0.526 -1.2062  0.2150  0.8952
   45SOL    HW3  179   1.407   2.548   0.625  0.4302 -0.6610  0.9403
   45SOL    MW4  180   1.422   2.573   0.543 -0.5123 -0.1557  0.9133
   46SOL     OW  181   0.983   0.980   0.552  0.6029 -0.1490  0.1552
   46SOL    HW2  182   1.035   1.035   0.493 -0.7795  0.3891 -0.6065
   46SOL    HW3  183   1.011   1.005   0.640  1.0038  0.7545 -0.2201
   46SOL    MW4  184   0.993   0.990   0.555  0.4734  0.0412  0.0052
   47SOL     OW  185   4.196   3.584   0.475 -0.0976  0.0682  0.7267
   47SOL    HW2  186   4.193   3.489   0.465  0.8083  0.0504  0.5940
   47SOL    HW3  187   4.208   3.598   0.569  0.4983  0.0266  0.6620
   47SOL    MW4  188   4.197   3.574   0.486  0.1006  0.0604  0.7007
   48SOL     OW  189   0.746   1.923   0.596  0.3079 -0.2494  0.0750
   48SOL    HW2  190   0.664   1.894   0.555  0.0476  0.3077  0.1937
   48SOL    HW3  191   0.718   1.964   0.678  0.7434 -0.4180  0.3102
   48SOL    MW4  192   0.731   1.924   0.601  0.3311 -0.1981  0.1217
   49SOL     OW  193   2.940   2.166   0.471  0.0771  0.2725 -0.3777
   49SOL    HW2  194   2.932   2.118   0.553  1.4464 -0.2826 -0.5564
   49SOL    HW3  195   3.006   2.233   0.487  0.9145 -0.3235 -1.2251
   49SOL    MW4  196   2.948   2.168   0.484  0.3682  0.1206 -0.5131
   50SOL     OW  197   1.090   2.185   0.846  0.2620 -0.3416 -0.4443
   50SOL    HW2  198   1.044   2.101   0.843 -0.3203 -0.1465  2.0678
   50SOL    HW3  199   1.105   2.201   0.939  3.0824  0.8811 -1.0440
   50SOL    MW4  200   1.086   2.176   0.857  0.5573 -0.1546 -0.1920
   51SOL     OW  201   2.988   1.581   0.809  0.0490  0.0271  0.5164
   51SOL    HW2  202   2.902   1.613   0.784  0.0446 -0.2158  0.2189
   51SOL    HW3  203   3.049   1.648   0.775  0.0398 -0.2739 -0.1073
   51SOL    MW4  204   2.985   1.594   0.801  0.0472 -0.0447  0.3949
   52SOL     OW  205   0.907   4.096   0.748  0.4121  0.1265 -0.3156
   52SOL    HW2  206   0.902   4.087   0.653 -0.0563 -0.9420 -0.1946
   52SOL    HW3  207   0.842   4.033   0.782  1.0543  0.0139  0.7242
   52SOL    MW4  208   0.897   4.087   0.740  0.4350 -0.0293 -0.1625
   53SOL     OW  209   0.669   3.406   0.409 -0.0181  0.0957 -0.4145
   53SOL    HW2  210   0.656   3.501   0.405 -1.2955 -0.1359 -2.0127
   53SOL    HW3  211   0.582   3.371   0.430  0.1143 -0.8160 -1.3720
   53SOL    MW4  212   0.656   3.414   0.411 -0.1692 -0.0552 -0.7517
   54SOL     OW  213   1.022   0.031   0.880  0.3951 -0.7418 -0.2066
   54SOL    HW2  214   0.978   0.092   0.820  1.1526 -0.0651 -0.0818
   54SOL    HW3  215   1.056  -0.038   0.824  1.5252  0.1413 -0.6267
   54SOL    MW4  216   1.021   0.030   0.865  0.6441 -0.5360 -0.2455
   55SOL     OW  217   0.698   3.106   0.878  0.0993 -0.6707  0.0444
   55SOL    HW2  218   0.780   3.150   0.855 -0.1183  0.8197  1.9826
   55SOL    HW3  219   0.629   3.162   0.842 -0.1123 -0.9025  0.0816
   55SOL    MW4  220   0.699   3.119   0.870  0.0426 -0.5046  0.3051
   56SOL     OW  221   0.296   3.012   0.551  0.0499  0.3775 -0.5367
   56SOL    HW2  222   0.274   3.052   0.635 -0.0781  2.6570 -1.6107
   56SOL    HW3  223   0.267   2.921   0.559 -2.8204  1.3556  0.7654
   56SOL    MW4  224   0.289   3.006   0.563 -0.3457  0.8073 -0.5066
   57SOL     OW  225   3.837   3.132   0.870 -0.6326  0.1651 -0.0239
   57SOL    HW2  226   3.766   3.166   0.817 -0.3026 -1.8253 -1.8396
   57SOL    HW3  227   3.860   3.049   0.828  1.1093 -0.4065  1.9726
   57SOL    MW4  228   3.831   3.125   0.857 -0.3592 -0.1729 -0.0000
   58SOL     OW  229   3.129   2.388   0.488  0.3246 -0.1127 -0.3295
   58SOL    HW2  230   3.095   2.476   0.473  0.7604 -0.0343 -0.9174
   58SOL    HW3  231   3.145   2.383   0.582 -0.4198  0.1696 -0.1883
   58SOL    MW4  232   3.127   2.399   0.498  0.2839 -0.0651 -0.3884
   59SOL     OW  233   4.062   0.358   0.846 -0.0794  0.1513  0.4113
   59SOL    HW2  234   4.057   0.277   0.797 -0.1526 -0.0213  0.6986
   59SOL    HW3  235   3.987   0.410   0.815 -0.8273 -0.4404  1.1915
   59SOL    MW4  236   4.051   0.354   0.836 -0.1877  0.0505  0.5521
   60SOL     OW  237   3.003   2.953   0.514 -0.6168  0.3282  0.7992
   60SOL    HW2  238   3.051   3.036   0.510  1.0244 -0.5277  2.2571
   60SOL    HW3  239   2.969   2.950   0.603 -0.4524 -0.6984  0.8275
   60SOL    MW4  240   3.005   2.964   0.525 -0.3786  0.0798  0.9953
   61SOL     OW  241   3.194   0.727   0.350  0.0626 -0.0857 -0.0527
   61SOL    HW2  242   3.139   0.665   0.398  0.8937  0.1065  1.1775
   61SOL    HW3  243   3.203   0.802   0.409  2.5152 -0.5590  0.2075
   61SOL    MW4  244   3.188   0.729   0.364  0.4959 -0.1228  0.1439
   62SOL     OW  245   3.146   3.207   0.807 -0.2334 -0.4804  0.5759
   62SOL    HW2  246   3.226   3.167   0.840  0.0818 -0.7532 -0.5238
   62SOL    HW3  247   3.158   3.213   0.713 -0.8888  0.8663  0.5617
   62SOL    MW4  248   3.158   3.203   0.799 -0.2783 -0.3387  0.4289
   63SOL     OW  249   2.127   3.175   0.926 -0.2991 -0.2273 -0.2909
   63SOL    HW2  250   2.114   3.269   0.939  0.3348 -0.0325 -0.9943
   63SOL    HW3  251   2.217   3.168   0.894 -0.2163 -1.1128  0.1313
   63SOL    MW4  252   2.137   3.187   0.924 -0.2045 -0.3184 -0.3280
   64SOL     OW  253   4.066   4.279   0.880  0.2733 -0.3484 -0.4606
   64SOL    HW2  254   3.987   4.307   0.834 -0.6553 -0.3328  1.1347
   64SOL    HW3  255   4.138   4.310   0.824 -0.7484  3.8813  0.3806
   64SOL    MW4  256   4.065   4.287   0.866  0.0160  0.2117 -0.1392
   65SOL     OW  257   2.744   1.683   0.734 -0.0770 -0.3692  0.0941
   65SOL    HW2  258   2.738   1.698   0.639  0.2022 -0.2558  0.0943
   65SOL    HW3  259   2.729   1.770   0.773  1.5408 -0.0832  0.0957
   65SOL    MW4  260   2.741   1.697   0.726  0.1733 -0.3165  0.0943
   66SOL     OW  261   0.884   2.697   0.894  0.3364 -0.1827  0.4295
   66SOL    HW2  262   0.799   2.738   0.876 -0.4447 -2.0227 -0.1697
   66SOL    HW3  263   0.886   2.688   0.990  0.3496  0.8522  0.5395
   66SOL    MW4  264   0.873   2.702   0.904  0.2351 -0.2889  0.3650
   67SOL     OW  265   0.466   1.152   0.346 -0.1489  0.0945 -0.0103
   67SOL    HW2  266   0.481   1.162   0.440 -0.2121 -0.4831  0.0648
   67SOL    HW3  267   0.373   1.172   0.335 -0.6863 -1.9685  0.3904
   67SOL    MW4  268   0.456   1.156   0.357 -0.2281 -0.2539  0.0525
   68SOL     OW  269   0.930   1.668   0.786 -0.1357 -0.2214  0.1506
   68SOL    HW2  270   0.935   1.681   0.691  0.2812 -0.5466  0.1246
   68SOL    HW3  271   0.846   1.625   0.800 -0.0643 -0.4516 -0.1076
   68SOL    MW4  272   0.920   1.664   0.775 -0.0713 -0.2947  0.1131
   69SOL     OW  273   4.048   3.551   0.825  0.3195 -0.1893  0.1686
   69SOL    HW2  274   4.048   3.455   0.820  1.6010 -0.3097  1.8897
   69SOL    HW3  275   4.045   3.569   0.919  2.0261  1.4418 -0.0790
   69SOL    MW4  276   4.048   3.540   0.837  0.7137  0.0100  0.3630
   70SOL     OW  277   0.966   3.675   0.424 -0.0424 -0.3054 -0.1183
   70SOL    HW2  278   0.967   3.579   0.423  0.2171 -0.3065  0.0752
   70SOL    HW3  279   1.012   3.698   0.505  2.0472  0.0175 -1.3569
   70SOL    MW4  280   0.972   3.665   0.435  0.2676 -0.2630 -0.2561
   71SOL     OW  281   1.429   0.698   0.357  0.4626 -0.3367 -0.0296
   71SOL    HW2  282   1.407   0.657   0.440  0.0096 -1.3833 -0.6526
   71SOL    HW3  283   1.431   0.792   0.376 -0.6872 -0.4937  0.9212
   71SOL    MW4  284   1.426   0.705   0.370  0.2511 -0.4955  0.0136
   72SOL     OW  285   0.859   4.345   0.842  0.1119  0.1022 -0.4319
   72SOL    HW2  286   0.780   4.377   0.798  0.7637  1.1492 -0.8484
   72SOL    HW3  287   0.870   4.256   0.808 -1.2968 -0.3296  0.1861
   72SOL    MW4  288   0.850   4.337   0.832  0.0121  0.1834 -0.4053
   73SOL     OW  289   1.618   0.455   0.667 -0.2042  0.8559  0.2996
   73SOL    HW2  290   1.564   0.381   0.692 -0.6750  1.5085  1.2458
   73SOL    HW3  291   1.656   0.430   0.583  0.7455 -1.0372  1.2548
   73SOL    MW4  292   1.616   0.442   0.659 -0.1410  0.6923  0.5505
   74SOL     OW  293   2.991   2.649   0.473 -0.4739  0.0780 -0.3661
   74SOL    HW2  294   2.974   2.743   0.478 -1.2141 -0.0505 -0.3509
   74SOL    HW3  295   2.911   2.609   0.507  0.2978 -0.5368  0.7543
   74SOL    MW4  296   2.978   2.656   0.478 -0.4697 -0.0201 -0.2162
   75SOL     OW  297   0.779   0.602   0.378 -0.3074  0.0537 -0.4395
   75SOL    HW2  298   0.850   0.625   0.437 -0.2143 -1.4214  0.0379
   75SOL    HW3  299   0.786   0.666   0.307  0.8280  0.5847  0.1339
   75SOL    MW4  300   0.790   0.613   0.376 -0.1453 -0.0709 -0.3009
   76SOL     OW  301   1.041   2.326   0.603  0.0065  0.2775  1.0983
   76SOL    HW2  302   0.982   2.256   0.576 -0.6726  0.5890  1.7425
   76SOL    HW3  303   1.073   2.299   0.689  1.8216 -0.5067  0.1926
   76SOL    MW4  304   1.037   2.314   0.610  0.1564  0.2151  1.0638
   77SOL     OW  305   1.147   2.536   0.411  0.2144  0.1263  0.0688
   77SOL    HW2  306   1.106   2.477   0.474 -0.0373 -0.4018 -0.5812
   77SOL    HW3  307   1.236   2.547   0.443  0.1965 -0.4313  0.3166
   77SOL    MW4  308   1.153   2.530   0.424  0.1788 -0.0170  0.0158
   78SOL     OW  309   3.842   1.313   0.727  0.6467  0.2869 -0.1640
   78SOL    HW2  310   3.779   1.263   0.779 -0.0128 -1.0080 -2.1251
   78SOL    HW3  311   3.791   1.345   0.653  2.2130 -0.4988 -1.6127
   78SOL    MW4  312   3.827   1.311   0.724  0.7664  0.0124 -0.6139
   79SOL     OW  313   3.426   0.573   0.344  0.5871  0.5415  0.6737
   79SOL    HW2  314   3.344   0.620   0.356  0.8944  1.3421 -0.2977
   79SOL    HW3  315   3.408   0.485   0.376 -0.6759  0.6868  0.3987
   79SOL    MW4  316   3.413   0.567   0.350  0.4610  0.6663  0.5092
   80SOL     OW  317   0.719   4.293   0.466  0.2138  0.0390 -0.5864
   80SOL    HW2  318   0.709   4.353   0.540  0.3917  0.3132 -0.7829
   80SOL    HW3  319   0.741   4.349   0.392  2.3717 -0.4402 -0.3415
   80SOL    MW4  320   0.721   4.308   0.466  0.5219  0.0119 -0.5800
   81SOL     OW  321   3.988   3.751   0.434 -0.0007  0.3580 -0.2308
   81SOL    HW2  322   4.074   3.711   0.448  0.0246  1.1335  2.1255
   81SOL    HW3  323   4.004   3.845   0.444 -1.1589  0.4846  0.5256
   81SOL    MW4  324   4.001   3.758   0.437 -0.1502  0.4770  0.1799
   82SOL     OW  325   1.024   0.609   0.798  0.3792  0.1909 -0.5832
   82SOL    HW2  326   0.988   0.636   0.714  0.1612  1.2147 -0.1712
   82SOL    HW3  327   0.973   0.532   0.824 -0.0963  0.3662 -1.0014
   82SOL    MW4  328   1.013   0.603   0.791  0.2877  0.3491 -0.5840
   83SOL     OW  329   4.030   2.503   0.749 -0.6670 -0.0509 -0.2890
   83SOL    HW2  330   3.957   2.442   0.762  0.2122 -1.1917 -0.6104
   83SOL    HW3  331   4.025   2.526   0.656 -1.3507  0.8343 -0.0388
   83SOL    MW4  332   4.020   2.498   0.738 -0.6412 -0.0846 -0.2984
   84SOL     OW  333   0.636   2.423   0.321 -0.2596 -0.1726  0.1994
   84SOL    HW2  334   0.653   2.384   0.406 -0.1940 -0.5089  0.0328
   84SOL    HW3  335   0.722   2.423   0.277 -0.4157 -0.5830 -0.1089
   84SOL    MW4  336   0.650   2.418   0.326 -0.2716 -0.2711  0.1367
   85SOL     OW  337   0.934   1.926   0.868  0.1128  0.3029 -0.0378
   85SOL    HW2  338   0.943   1.907   0.962  1.5635  0.0252 -0.2234
   85SOL    HW3  339   0.914   1.842   0.828  2.1750 -0.0830 -0.3046
   85SOL    MW4  340   0.932   1.913   0.875  0.5763  0.2154 -0.0975
   86SOL     OW  341   3.437   3.656   0.470  0.1013  0.1417 -0.0768
   86SOL    HW2  342   3.530   3.680   0.471  0.1777 -0.1510 -0.0956
   86SOL    HW3  343   3.416   3.636   0.561  0.2930 -0.6816 -0.2047
   86SOL    MW4  344   3.447   3.656   0.482  0.1367 -0.0056 -0.0961
   87SOL     OW  345   0.494   1.185   0.624 -0.3618  0.0319 -0.3807
   87SOL    HW2  346   0.436   1.223   0.690 -0.0537  0.4960 -0.3775
   87SOL    HW3  347   0.574   1.237   0.630 -0.7600  0.8310 -1.9237
   87SOL    MW4  348   0.497   1.197   0.634 -0.3737  0.1985 -0.5838
   88SOL     OW  349   0.193   1.183   0.292 -0.0548  0.1550 -0.0629
   88SOL    HW2  350   0.144   1.152   0.216  0.8567 -0.7887 -0.2784
   88SOL    HW3  351   0.147   1.145   0.367 -0.5808  0.5678 -0.1738
   88SOL    MW4  352   0.181   1.174   0.292 -0.0039  0.0850 -0.1060
   89SOL     OW  353   1.004   0.685   0.523 -0.1502  0.3378  0.1971
   89SOL    HW2  354   1.067   0.666   0.453 -1.1452  0.1437 -0.6715
   89SOL    HW3  355   1.011   0.780   0.536  0.5545  0.2680  0.3353
   89SOL    MW4  356   1.013   0.695   0.515 -0.1885  0.3030  0.1007
   90SOL     OW  357   2.334   0.613   0.465  0.3096 -0.3418  0.1458
   90SOL    HW2  358   2.341   0.575   0.377  0.4742  1.7598 -0.7761
   90SOL    HW3  359   2.358   0.705   0.454 -0.2653  0.1004  2.2885
   90SOL    MW4  360   2.338   0.620   0.452  0.2554 -0.0062  0.3068
   91SOL     OW  361   2.047   1.547   0.860 -0.6356 -0.1654  0.0721
   91SOL    HW2  362   2.049   1.453   0.843  1.0801  0.1550 -1.6400
   91SOL    HW3  363   1.962   1.576   0.827 -0.3713 -0.7983 -1.2028
   91SOL    MW4  364   2.036   1.538   0.854 -0.3744 -0.2066 -0.3220
   92SOL     OW  365   1.011   1.094   0.208  0.0833  0.1710  0.2567
   92SOL    HW2  366   0.951   1.164   0.179  0.7143  0.1883 -1.0206
   92SOL    HW3  367   0.955   1.017   0.217  0.0887 -0.1507 -2.2478
   92SOL    MW4  368   0.996   1.093   0.205  0.1673  0.1309 -0.2423
   93SOL     OW  369   3.986   0.020   0.502  0.0510  0.8597 -0.1255
   93SOL    HW2  370   3.981   0.088   0.435 -0.8428 -0.4224 -1.3846
   93SOL    HW3  371   4.076  -0.012   0.497 -0.4021 -0.1981 -1.7015
   93SOL    MW4  372   3.997   0.025   0.493 -0.1267  0.5510 -0.4995
   94SOL     OW  373   2.487   0.530   0.684  0.2005 -0.2483  0.4201
   94SOL    HW2  374   2.427   0.477   0.737 -1.0191 -0.1484 -0.8230
   94SOL    HW3  375   2.430   0.578   0.624  1.6275 -1.8316 -2.3046
   94SOL    MW4  376   2.472   0.529   0.683  0.2279 -0.4440 -0.1034
   95SOL     OW  377   0.764   1.304   0.748  0.2334  0.3469 -0.5007
   95SOL    HW2  378   0.735   1.382   0.795 -1.9081 -0.7824  0.1555
   95SOL    HW3  379   0.822   1.337   0.679 -0.1784  2.4438  0.1208
   95SOL    MW4  380   0.768   1.319   0.745 -0.1035  0.4745 -0.3321
   96SOL     OW  381   3.634   1.928   0.386  0.1366 -0.0790  0.2542
   96SOL    HW2  382   3.634   1.909   0.292  1.5789  0.3089  0.1602
   96SOL    HW3  383   3.546   1.959   0.405 -0.1733 -0.2142 -0.9664
   96SOL    MW4  384   3.623   1.929   0.376  0.2860 -0.0457  0.0808
   97SOL     OW  385   3.598   0.161   0.470 -0.7664 -0.0815  0.5583
   97SOL    HW2  386   3.599   0.147   0.565 -1.7062  0.2131  0.6157
   97SOL    HW3  387   3.615   0.074   0.433  2.1969  0.2575  1.0039
   97SOL    MW4  388   3.600   0.148   0.477 -0.4994  0.0021  0.6247
   98SOL     OW  389   1.157   0.644   0.314  0.2817 -0.6642  0.0052
   98SOL    HW2  390   1.250   0.650   0.334  0.1809 -0.3632  0.3857
   98SOL    HW3  391   1.142   0.712   0.248  0.2389 -0.3892  0.2949
   98SOL    MW4  392   1.167   0.654   0.308  0.2628 -0.5882  0.0936
   99SOL     OW  393   3.120   2.016   0.866 -0.0010 -0.5901 -0.2922
   99SOL    HW2  394   3.037   2.034   0.821  0.0663  0.6157  0.0294
   99SOL    HW3  395   3.100   2.028   0.959  0.5849 -0.0324 -0.2325
   99SOL    MW4  396   3.107   2.020   0.872  0.0852 -0.3575 -0.2419
  100SOL     OW  397   2.226   2.182   0.509 -0.6096  0.0561 -0.0309
  100SOL    HW2  398   2.242   2.276   0.517 -1.4695  0.1574  0.5557
  100SOL    HW3  399   2.311   2.145   0.483 -0.5780  1.1260 -1.4524
  100SOL    MW4  400   2.239   2.189   0.507 -0.7189  0.2106 -0.1411
  101SOL     OW  401   0.681   1.551   0.838 -0.3809 -0.2280 -0.4528
  101SOL    HW2  402   0.685   1.530   0.932 -1.7860  0.0822 -0.3234
  101SOL    HW3  403   0.597   1.595   0.826  0.3563  0.9029 -1.6288
  101SOL    MW4  404   0.671   1.554   0.849 -0.4690 -0.0379 -0.5909
  102SOL     OW  405   2.188   2.760   0.897  0.3922  0.8244 -0.4656
  102SOL    HW2  406   2.191   2.671   0.862 -0.7076  0.7809 -0.4744
  102SOL    HW3  407   2.206   2.750   0.990  2.6982  0.8685 -0.8884
  102SOL    MW4  408   2.190   2.747   0.905  0.5513  0.8245 -0.5225
  103SOL     OW  409   2.945   0.286   0.394 -0.0228 -0.1961  0.2890
  103SOL    HW2  410   2.975   0.376   0.382 -1.2106 -0.1734 -2.7936
  103SOL    HW3  411   2.873   0.292   0.457  1.0176  0.7645  1.4051
  103SOL    MW4  412   2.940   0.298   0.401 -0.0422 -0.0664  0.0296
  104SOL     OW  413   1.253   2.346   0.237 -0.1922 -0.2825  0.2670
  104SOL    HW2  414   1.203   2.414   0.284  0.1915  0.0900  0.1396
  104SOL    HW3  415   1.340   2.350   0.276  0.4585  0.7949 -1.2231
  104SOL    MW4  416   1.258   2.356   0.248 -0.0557 -0.0912  0.0536
  105SOL     OW  417   2.352   3.417   0.774  0.9304 -0.7601  0.2973
  105SOL    HW2  418   2.440   3.393   0.805  1.1112 -1.3651 -0.6535
  105SOL    HW3  419   2.338   3.361   0.698 -0.1091 -0.3479  0.1829
  105SOL    MW4  420   2.362   3.406   0.768  0.8171 -0.7855  0.1567
  106SOL     OW  421   1.715   3.233   0.745 -0.2792 -0.1821  0.9135
  106SOL    HW2  422   1.731   3.326   0.764 -0.0196 -0.5693  2.7516
  106SOL    HW3  423   1.677   3.232   0.658  0.8189  1.5645  0.3945
  106SOL    MW4  424   1.712   3.245   0.736 -0.1001 -0.0028  1.0875
  107SOL     OW  425   2.910   4.403   0.793  0.4130  0.2267  0.4465
  107SOL    HW2  426   2.899   4.496   0.811 -2.0167  0.5524 -2.3367
  107SOL    HW3  427   2.832   4.362   0.832  0.3453 -0.3402 -0.2770
  107SOL    MW4  428   2.898   4.410   0.800  0.0835  0.1949 -0.0162
  108SOL     OW  429   3.799   3.885   0.899  0.4810 -0.5218 -0.1157
  108SOL    HW2  430   3.879   3.923   0.864  0.8424  0.0289  1.2748
  108SOL    HW3  431   3.780   3.810   0.841  1.8207 -0.4840 -0.6149
  108SOL    MW4  432   3.807   3.880   0.886  0.7055 -0.4441  0.0019
  109SOL     OW  433   1.150   2.130   0.371  0.1919 -0.0819  0.3067
  109SOL    HW2  434   1.185   2.193   0.308  2.3079 -0.4048  1.1043
  109SOL    HW3  435   1.219   2.121   0.437 -1.6355 -0.3838  2.2272
  109SOL    MW4  436   1.164   2.137   0.372  0.2300 -0.1644  0.6653
  110SOL     OW  437   2.589   1.261   0.874  0.0105  0.2856  0.2461
  110SOL    HW2  438   2.635   1.243   0.793  0.6880  1.0250  0.4653
  110SOL    HW3  439   2.585   1.356   0.880  0.3776  0.2488  1.3006
  110SOL    MW4  440   2.594   1.271   0.864  0.1483  0.3783  0.4142
  111SOL     OW  441   2.956   0.856   0.276 -0.5930 -0.4618 -0.3419
  111SOL    HW2  442   2.890   0.798   0.316 -0.2974 -1.5118 -1.3663
  111SOL    HW3  443   3.040   0.815   0.298 -0.3307  0.1854 -0.1255
  111SOL    MW4  444   2.958   0.843   0.285 -0.5194 -0.5150 -0.4485
  112SOL     OW  445   3.565   2.454   0.718  0.3094 -0.1235  0.0172
  112SOL    HW2  446   3.571   2.545   0.749  2.7672 -0.3958  0.4930
  112SOL    HW3  447   3.494   2.415   0.769 -0.7484  1.5143 -0.1696
  112SOL    MW4  448   3.557   2.461   0.729  0.4941  0.0566  0.0553
  113SOL     OW  449   1.300   4.299   0.867  0.5102 -0.0686  0.0086
  113SOL    HW2  450   1.329   4.208   0.863  0.7596 -0.0289  0.7242
  113SOL    HW3  451   1.377   4.351   0.844  0.6019 -0.0186  0.4072
  113SOL    MW4  452   1.314   4.294   0.864  0.5552 -0.0568  0.1556
  114SOL     OW  453   2.148   2.888   0.364 -0.3883  0.3136  0.8821
  114SOL    HW2  454   2.228   2.874   0.414  1.7864  0.9711 -2.2798
  114SOL    HW3  455   2.114   2.972   0.395  0.1904  0.0919  2.1317
  114SOL    MW4  456   2.154   2.897   0.374 -0.0251  0.3711  0.6298
  115SOL     OW  457   2.325   0.099   0.433  0.1886  0.1392 -0.1543
  115SOL    HW2  458   2.311   0.006   0.416  0.2134  0.2326 -0.7007
  115SOL    HW3  459   2.418   0.106   0.452 -0.1013 -0.1804  1.4710
  115SOL    MW4  460   2.335   0.088   0.433  0.1536  0.1094 -0.0119
  116SOL     OW  461   1.344   3.221   0.712 -0.6294  0.9530  0.0623
  116SOL    HW2  462   1.338   3.315   0.732 -0.7067  1.1097 -0.6738
  116SOL    HW3  463   1.407   3.187   0.776  1.0796  1.9347 -1.0450
  116SOL    MW4  464   1.352   3.229   0.723 -0.4141  1.1032 -0.1809
  117SOL     OW  465   0.068   4.020   0.557  0.1865  0.5850 -0.4033
  117SOL    HW2  466   0.045   4.032   0.650  0.0259  0.8169 -0.4714
  117SOL    HW3  467   0.126   4.094   0.538  1.1510 -0.1096 -0.1788
  117SOL    MW4  468   0.073   4.031   0.567  0.2925  0.5239 -0.3827
  118SOL     OW  469   1.496   2.347   0.383 -0.6325 -0.1094 -0.2122
  118SOL    HW2  470   1.479   2.428   0.430 -0.9808 -0.4129  0.1909
  118SOL    HW3  471   1.584   2.358   0.348 -1.0547  0.8333 -0.9814
  118SOL    MW4  472   1.505   2.359   0.385 -0.7341 -0.0250 -0.2605
  119SOL     OW  473   3.376   2.955   0.511 -0.5004  0.0300  0.3977
  119SOL    HW2  474   3.459   2.973   0.468  0.1182 -1.4045  0.9656
  119SOL    HW3  475   3.343   2.876   0.468 -1.4516  0.4448  0.3437
  119SOL    MW4  476   3.382   2.947   0.500 -0.5443 -0.1046  0.4655
  120SOL     OW  477   1.429   0.877   0.770 -0.1564  0.3446 -0.0728
  120SOL    HW2  478   1.344   0.848   0.803  0.2253 -1.5464 -0.7066
  120SOL    HW3  479   1.418   0.882   0.676 -0.0897  1.9059 -0.0058
  120SOL    MW4  480   1.416   0.874   0.762 -0.0972  0.3011 -0.1476
  121SOL     OW  481   2.599   3.350   0.869 -0.3924  0.0573  0.1126
  121SOL    HW2  482   2.654   3.391   0.935 -1.0005  2.5933 -0.9020
  121SOL    HW3  483   2.657   3.336   0.795 -0.8020  1.6979 -0.5470
  121SOL    MW4  484   2.614   3.353   0.868 -0.5267  0.6084 -0.1083
  122SOL     OW  485   3.791   3.645   0.738  0.1800  0.3154 -0.3401
  122SOL    HW2  486   3.873   3.598   0.722 -0.8087 -1.3281 -0.7224
  122SOL    HW3  487   3.769   3.685   0.653 -0.2990 -0.6922 -0.6973
  122SOL    MW4  488   3.799   3.644   0.725 -0.0137 -0.0344 -0.4377
  123SOL     OW  489   2.983   4.146   0.471 -0.7388 -0.1293 -0.3259
  123SOL    HW2  490   3.039   4.108   0.539  1.1662  1.2061 -1.0953
  123SOL    HW3  491   3.017   4.110   0.389 -0.5329  1.2610 -0.8661
  123SOL    MW4  492   2.995   4.136   0.469 -0.4603  0.2303 -0.4987
  124SOL     OW  493   2.636   1.012   0.367 -0.1753  0.5814  0.1120
  124SOL    HW2  494   2.724   0.993   0.335 -0.3816  0.6927 -0.5348
  124SOL    HW3  495   2.642   1.099   0.407  0.2743  0.0914  1.1209
  124SOL    MW4  496   2.648   1.021   0.368 -0.1432  0.5314  0.1597
  125SOL     OW  497   2.727   3.091   0.511 -0.2369 -0.0292 -0.0214
  125SOL    HW2  498   2.811   3.050   0.492  0.1003  0.8398 -0.4815
  125SOL    HW3  499   2.747   3.161   0.573 -0.7795 -0.4831  0.6650
  125SOL    MW4  500   2.740   3.095   0.516 -0.2640  0.0256  0.0084
  126SOL     OW  501   2.838   1.495   0.346  0.1208 -0.2295 -0.2811
  126SOL    HW2  502   2.790   1.561   0.397  0.4283 -0.5519  0.4394
  126SOL    HW3  503   2.882   1.544   0.278 -1.4515  0.0473 -1.1223
  126SOL    MW4  504   2.838   1.510   0.344 -0.0461 -0.2356 -0.2970
  127SOL     OW  505   4.409   0.133   0.474 -0.3193 -0.2782 -0.0118
  127SOL    HW2  506   4.486   0.103   0.426  1.0644  2.3572  0.4165
  127SOL    HW3  507   4.434   0.123   0.566 -0.4641  0.5863  0.1271
  127SOL    MW4  508   4.423   0.128   0.480 -0.1559  0.1836  0.0631
  128SOL     OW  509   3.288   2.713   0.391  0.2328  0.6908 -0.3600
  128SOL    HW2  510   3.317   2.639   0.338 -1.3046  0.0667 -0.3437
  128SOL    HW3  511   3.196   2.694   0.410  0.6833  1.0453  2.2829
  128SOL    MW4  512   3.280   2.701   0.387  0.0894  0.6552 -0.0091
  129SOL     OW  513   1.390   2.920   0.375 -0.1521  0.5399  0.4046
  129SOL    HW2  514   1.384   3.016   0.374 -0.2931  0.5380  0.9192
  129SOL    HW3  515   1.301   2.891   0.396 -0.0291  0.3043  0.5985
  129SOL    MW4  516   1.378   2.929   0.378 -0.1544  0.5085  0.4981
  130SOL     OW  517   1.385   0.040   0.550  0.2277 -0.7481  0.3335
  130SOL    HW2  518   1.290   0.048   0.559 -0.0939 -1.6431 -2.0943
  130SOL    HW3  519   1.420   0.103   0.613 -1.9735 -0.0689  0.9146
  130SOL    MW4  520   1.377   0.049   0.560 -0.1051 -0.7766  0.0898
  131SOL     OW  521   3.154   4.095   0.684 -0.9426  0.1569 -0.1072
  131SOL    HW2  522   3.149   4.006   0.719 -0.4146  0.6013  1.1386
  131SOL    HW3  523   3.156   4.151   0.761  1.3656  1.0992 -0.7955
  131SOL    MW4  524   3.154   4.090   0.698 -0.5684  0.3399 -0.0337
  132SOL     OW  525   1.835   1.593   0.484 -0.3090 -0.1529  0.4362
  132SOL    HW2  526   1.928   1.603   0.464 -0.8621  1.7486 -1.3880
  132SOL    HW3  527   1.825   1.627   0.573  0.9430 -1.6183  1.1561
  132SOL    MW4  528   1.846   1.599   0.493 -0.2168 -0.0954  0.2905
  133SOL     OW  529   1.395   2.100   0.515 -0.0662  0.0193  0.6371
  133SOL    HW2  530   1.435   2.163   0.456 -1.7674 -0.1310 -0.7016
  133SOL    HW3  531   1.416   2.015   0.478  0.9111 -0.1670  1.5928
  133SOL    MW4  532   1.403   2.097   0.503 -0.1617 -0.0251  0.5866
  134SOL     OW  533   3.136   2.706   0.861 -1.0419  0.4194 -0.3677
  134SOL    HW2  534   3.218   2.750   0.837 -0.5868  1.2152  2.4429
  134SOL    HW3  535   3.144   2.618   0.823  0.5892  0.8747 -1.1309
  134SOL    MW4  536   3.148   2.700   0.853 -0.7667  0.5845 -0.0976
  135SOL     OW  537   1.973   3.611   0.768  0.5276 -0.0664  0.2544
  135SOL    HW2  538   1.972   3.624   0.674 -0.6352  0.0844  0.2776
  135SOL    HW3  539   2.011   3.691   0.803 -0.2299  0.4128 -0.0146
  135SOL    MW4  540   1.978   3.623   0.760  0.2742  0.0167  0.2220
  136SOL     OW  541   2.701   0.222   0.862 -0.4780 -0.6046 -0.3248
  136SOL    HW2  542   2.628   0.160   0.857  0.8740 -2.3602  1.0604
  136SOL    HW3  543   2.687   0.268   0.946  0.2397 -1.2608  0.1604
  136SOL    MW4  544   2.689   0.220   0.873 -0.2049 -0.9228 -0.0781
  137SOL     OW  545   0.637   2.314   0.576 -0.4004  0.1587  0.2010
  137SOL    HW2  546   0.685   2.382   0.624  0.8525  0.0280 -0.8387
  137SOL    HW3  547   0.698   2.241   0.570 -1.0202 -0.3119 -0.4536
  137SOL    MW4  548   0.651   2.313   0.581 -0.3168  0.0794 -0.0226
  138SOL     OW  549   3.343   1.393   0.508 -0.1718  0.5363  0.4669
  138SOL    HW2  550   3.355   1.340   0.587 -0.6202 -1.4610 -0.7819
  138SOL    HW3  551   3.248   1.394   0.493  0.0325 -0.3993 -0.9223
  138SOL    MW4  552   3.332   1.386   0.516 -0.2040  0.1493  0.1189
  139SOL     OW  553   1.814   1.685   0.756 -0.1665  0.3428 -0.1616
  139SOL    HW2  554   1.793   1.774   0.784  1.1740  0.4636  0.4677
  139SOL    HW3  555   1.740   1.633   0.787 -0.1159  0.9522  1.0113
  139SOL    MW4  556   1.802   1.690   0.763  0.0170  0.4392  0.0762
  140SOL     OW  557   2.699   2.495   0.800  0.1656 -0.2832 -0.0736
  140SOL    HW2  558   2.619   2.453   0.832 -0.4721  0.7412 -0.3060
  140SOL    HW3  559   2.688   2.587   0.822  1.4014 -0.1827  0.1153
  140SOL    MW4  560   2.687   2.502   0.807  0.2445 -0.1348 -0.0794
  141SOL     OW  561   3.569   4.574   0.354 -0.3177  0.0711  0.4131
  141SOL    HW2  562   3.497   4.526   0.394 -0.9612  0.3594 -0.3893
  141SOL    HW3  563   3.554   4.567   0.260 -0.1631  1.4405  0.2755
  141SOL    MW4  564   3.558   4.567   0.347 -0.3822  0.2898  0.2891
  142SOL     OW  565   2.751   1.164   0.663 -0.7005 -0.3652 -0.0029
  142SOL    HW2  566   2.833   1.205   0.692 -0.1943 -0.1251 -1.7555
  142SOL    HW3  567   2.722   1.218   0.590 -1.9641 -0.9844  0.0405
  142SOL    MW4  568   2.758   1.176   0.657 -0.8004 -0.4152 -0.2284
  143SOL     OW  569   2.667   4.025   0.785 -0.3370  0.2395  0.1448
  143SOL    HW2  570   2.727   3.954   0.804  0.9432  1.1800 -0.3217
  143SOL    HW3  571   2.686   4.049   0.694 -1.2407  0.7174  0.0701
  143SOL    MW4  572   2.677   4.019   0.775 -0.2873  0.4266  0.0734
  144SOL     OW  573   2.864   4.649   0.873 -0.1536  0.3311 -0.8840
  144SOL    HW2  574   2.775   4.684   0.864  0.2803  1.8104  0.4396
  144SOL    HW3  575   2.920   4.714   0.831  0.5119  0.4824  0.2133
  144SOL    MW4  576   2.859   4.662   0.866 -0.0085  0.5463 -0.5646
  145SOL     OW  577   2.299   0.394   0.824 -0.1288  0.7504 -0.1897
  145SOL    HW2  578   2.321   0.306   0.794  0.6442  0.5995  0.7872
  145SOL    HW3  579   2.222   0.418   0.773  0.7843  0.2674 -1.8457
  145SOL    MW4  580   2.292   0.385   0.813  0.0937  0.6667 -0.2793
  146SOL     OW  581   2.072   3.125   0.509  0.0480  0.0783 -0.2069
  146SOL    HW2  582   2.040   3.096   0.595  0.5096  0.2592  0.0296
  146SOL    HW3  583   2.013   3.197   0.485  0.6051  0.7730  0.4764
  146SOL    MW4  584   2.060   3.131   0.517  0.1824  0.1938 -0.0855
  147SOL     OW  585   0.232   3.655   0.739 -0.3558  0.0523 -0.0824
  147SOL    HW2  586   0.315   3.615   0.764 -0.9710 -1.3844 -0.2321
  147SOL    HW3  587   0.166   3.604   0.786 -1.1448  1.3593  0.2556
  147SOL    MW4  588   0.234   3.643   0.748 -0.5410  0.0352 -0.0575
  148SOL     OW  589   2.570   0.779   0.814  0.1453 -0.1921 -0.1235
  148SOL    HW2  590   2.564   0.692   0.774  0.8426 -0.0620 -0.5254
  148SOL    HW3  591   2.645   0.819   0.771 -1.7386  1.6054 -1.8800
  148SOL    MW4  592   2.579   0.773   0.803 -0.0113  0.0622 -0.4083
  149SOL     OW  593   2.034   2.690   0.534 -0.1675 -0.2547 -0.0003
  149SOL    HW2  594   2.070   2.759   0.478  0.4459 -0.7631 -0.2403
  149SOL    HW3  595   1.999   2.736   0.610 -1.6542  0.5185 -1.1212
  149SOL    MW4  596   2.034   2.705   0.536 -0.2827 -0.2197 -0.1799
  150SOL     OW  597   2.714   1.736   0.466 -0.2401  0.3490 -0.1833
  150SOL    HW2  598   2.640   1.777   0.422  1.6128  1.4797 -2.3374
  150SOL    HW3  599   2.786   1.798   0.455  1.6801 -1.8159 -0.2619
  150SOL    MW4  600   2.714   1.749   0.459  0.2577  0.2125 -0.4779
  151SOL     OW  601   4.481   3.571   0.434  0.2872  0.0331  0.0897
  151SOL    HW2  602   4.392   3.604   0.442  0.0101 -1.0713  1.6034
  151SOL    HW3  603   4.536   3.646   0.458 -0.2549  0.3384  0.3963
  151SOL    MW4  604   4.477   3.586   0.438  0.1791 -0.0723  0.3299
  152SOL     OW  605   1.390   4.100   0.142 -0.1115  0.3441 -0.3227
  152SOL    HW2  606   1.368   4.188   0.173  0.8207  0.6005 -0.3597
  152SOL    HW3  607   1.397   4.109   0.047  0.2510  0.2995 -0.3037
  152SOL    MW4  608   1.388   4.113   0.133  0.0593  0.3720 -0.3251
  153SOL     OW  609   4.041   4.002   0.516  0.3509  0.2097 -0.1829
  153SOL    HW2  610   4.032   4.005   0.611  0.9263  1.1512 -0.1504
  153SOL    HW3  611   4.129   4.037   0.499  0.2398  0.0765 -1.0607
  153SOL    MW4  612   4.052   4.007   0.526  0.4122  0.3164 -0.2945
  154SOL     OW  613   3.612   1.676   0.786  0.5917 -0.1200  0.2998
  154SOL    HW2  614   3.523   1.641   0.799  0.3819  0.7609  1.3111
  154SOL    HW3  615   3.620   1.688   0.691 -0.4688  0.0395  0.2266
  154SOL    MW4  616   3.601   1.673   0.775  0.4241  0.0172  0.4236
  155SOL     OW  617   1.898   3.341   0.419 -0.1479  0.2915 -0.4589
  155SOL    HW2  618   1.903   3.435   0.441  0.8200  0.4839 -1.4481
  155SOL    HW3  619   1.805   3.323   0.410 -0.3695  1.0493  0.2210
  155SOL    MW4  620   1.887   3.351   0.421 -0.0495  0.4168 -0.4997
  156SOL     OW  621   2.551   1.552   0.889 -0.0593 -0.3431  0.1321
  156SOL    HW2  622   2.471   1.555   0.838 -0.1156  1.4661  0.2801
  156SOL    HW3  623   2.616   1.595   0.834  0.1511  0.6098  1.1085
  156SOL    MW4  624   2.549   1.558   0.875 -0.0390  0.0213  0.2804
  157SOL     OW  625   0.402   2.441   0.762  0.3820 -0.0718 -0.6878
  157SOL    HW2  626   0.408   2.526   0.806 -1.3884 -0.3868  0.2363
  157SOL    HW3  627   0.487   2.400   0.776  0.5113  0.6552  0.8096
  157SOL    MW4  628   0.414   2.447   0.770  0.1655 -0.0175 -0.3683
  158SOL     OW  629   3.357   2.258   0.388 -0.9706 -0.2861  0.2544
  158SOL    HW2  630   3.430   2.313   0.414 -0.4429 -1.2861  0.9009
  158SOL    HW3  631   3.279   2.310   0.410 -0.4809  0.1561  0.9504
  158SOL    MW4  632   3.356   2.273   0.394 -0.8363 -0.3597  0.4315
  159SOL     OW  633   0.472   4.190   0.405  0.4719  0.0950 -0.0085
  159SOL    HW2  634   0.480   4.095   0.408  0.3501  0.1334  1.9307
  159SOL    HW3  635   0.559   4.223   0.428 -0.2250  0.4354  2.2682
  159SOL    MW4  636   0.484   4.182   0.409  0.3639  0.1450  0.5477
  160SOL     OW  637   1.372   1.688   0.745  0.2388  0.2872 -0.0570
  160SOL    HW2  638   1.441   1.629   0.777  0.8963  1.6009  0.9744
  160SOL    HW3  639   1.377   1.764   0.802 -2.0446  0.4353 -0.0163
  160SOL    MW4  640   1.382   1.690   0.757  0.0243  0.4801  0.0844
  161SOL     OW  641   2.735   2.507   0.517 -0.1942  0.0115  0.5696
  161SOL    HW2  642   2.734   2.491   0.611 -0.4723  1.4348  0.8178
  161SOL    HW3  643   2.646   2.534   0.496 -0.7403 -2.4419 -0.5100
  161SOL    MW4  644   2.724   2.509   0.526 -0.3030 -0.1244  0.4599
  162SOL     OW  645   3.802   2.073   0.808 -0.3318 -0.0280 -0.2430
  162SOL    HW2  646   3.805   2.050   0.715  0.6278 -0.1871 -0.1817
  162SOL    HW3  647   3.796   2.169   0.808  1.4375  0.1069 -0.4765
  162SOL    MW4  648   3.802   2.083   0.796  0.0282 -0.0312 -0.2657
  163SOL     OW  649   2.985   3.533   0.641 -0.0509  0.5217  0.0478
  163SOL    HW2  650   2.908   3.591   0.641 -0.1349  0.4082 -0.7278
  163SOL    HW3  651   3.013   3.530   0.549  1.1501  0.9231  0.3908
  163SOL    MW4  652   2.978   3.540   0.629  0.0965  0.5597 -0.0092
  164SOL     OW  653   1.941   3.059   0.752 -0.3793 -0.4693  0.0034
  164SOL    HW2  654   2.006   3.088   0.816  0.0571 -0.8504 -0.2683
  164SOL    HW3  655   1.869   3.121   0.762  0.7589  1.0374 -0.9031
  164SOL    MW4  656   1.940   3.071   0.762 -0.1715 -0.3208 -0.1521
  165SOL     OW  657   3.835   0.551   0.484 -0.2077  0.2318  0.4191
  165SOL    HW2  658   3.777   0.620   0.453 -1.1974 -0.2840  1.0779
  165SOL    HW3  659   3.809   0.474   0.433 -0.0305  0.0236  0.6434
  165SOL    MW4  660   3.824   0.550   0.473 -0.3149  0.1362  0.5356
  166SOL     OW  661   1.542   3.622   0.785  0.5330 -0.0090 -0.0049
  166SOL    HW2  662   1.610   3.567   0.825  1.6366  0.9033 -0.6062
  166SOL    HW3  663   1.562   3.711   0.815 -1.8207 -0.0126  1.7666
  166SOL    MW4  664   1.553   3.626   0.794  0.3680  0.1109  0.1495
  167SOL     OW  665   2.075   0.002   0.888 -0.2087  0.3972  0.0135
  167SOL    HW2  666   2.160   0.026   0.851 -0.0214 -0.7654 -0.3559
  167SOL    HW3  667   2.011   0.039   0.827  0.1030 -1.7347 -1.6952
  167SOL    MW4  668   2.077   0.010   0.875 -0.1428 -0.0375 -0.2607
  168SOL     OW  669   2.901   2.098   0.728  0.2046  0.0623 -0.3298
  168SOL    HW2  670   2.825   2.047   0.758  0.4984 -0.3307 -0.2466
  168SOL    HW3  671   2.901   2.175   0.784 -1.1449  0.9182 -1.4671
  168SOL    MW4  672   2.891   2.101   0.740  0.0653  0.1233 -0.4689
  169SOL     OW  673   3.146   0.416   0.854 -0.4415 -0.4772  0.0519
  169SOL    HW2  674   3.224   0.439   0.805 -0.4248  0.0346  0.3159
  169SOL    HW3  675   3.174   0.418   0.946 -0.2290 -2.3323  0.0436
  169SOL    MW4  676   3.160   0.419   0.860 -0.4113 -0.6544  0.0856
  170SOL     OW  677   4.232   2.349   0.863  0.4003  0.1740  0.0336
  170SOL    HW2  678   4.221   2.256   0.841  0.4695  0.3417 -0.7286
  170SOL    HW3  679   4.153   2.391   0.828 -0.8247  0.0525  2.5332
  170SOL    MW4  680   4.220   2.342   0.855  0.2478  0.1801  0.2628
  171SOL     OW  681   3.744   1.154   0.264 -0.5986 -0.4445 -0.5065
  171SOL    HW2  682   3.681   1.190   0.327  0.2640 -1.5450  1.0425
  171SOL    HW3  683   3.691   1.115   0.196 -1.5690  0.5999 -0.3652
  171SOL    MW4  684   3.729   1.154   0.264 -0.6128 -0.4519 -0.2835
  172SOL     OW  685   3.607   3.235   0.762 -0.4570 -0.0005 -0.3180
  172SOL    HW2  686   3.553   3.177   0.815  0.3310 -0.5631 -0.1057
  172SOL    HW3  687   3.592   3.322   0.798 -1.4805 -0.0976 -0.4932
  172SOL    MW4  688   3.598   3.239   0.774 -0.4881 -0.0875 -0.3131
  173SOL     OW  689   4.044   1.932   0.898  0.2746  0.5624  0.4874
  173SOL    HW2  690   3.964   1.978   0.875  0.8512  1.4647  0.2764
  173SOL    HW3  691   4.042   1.852   0.845 -0.6056  0.4541  0.6802
  173SOL    MW4  692   4.033   1.927   0.888  0.2346  0.6672  0.4850
  174SOL     OW  693   2.749   0.359   0.644  0.1229  0.2231 -0.0758
  174SOL    HW2  694   2.672   0.416   0.644 -0.3818 -0.4467 -0.4223
  174SOL    HW3  695   2.743   0.312   0.727  0.6872  0.8652  0.3337
  174SOL    MW4  696   2.738   0.360   0.655  0.1308  0.2195 -0.0675
  175SOL     OW  697   3.382   0.334   0.495  0.0379 -0.1737  0.2590
  175SOL    HW2  698   3.442   0.263   0.472 -0.4070  0.0759 -1.7653
  175SOL    HW3  699   3.295   0.295   0.490 -0.2755  0.7622 -1.8984
  175SOL    MW4  700   3.378   0.319   0.491 -0.0622 -0.0173 -0.2927
  176SOL     OW  701   1.778   2.566   0.490 -0.0839 -0.0156  0.1409
  176SOL    HW2  702   1.863   2.600   0.519 -0.0596  1.4986 -1.6346
  176SOL    HW3  703   1.719   2.641   0.498 -0.7560 -0.4480 -0.7617
  176SOL    MW4  704   1.781   2.580   0.495 -0.1693  0.1272 -0.2124
  177SOL     OW  705   0.411   1.955   0.827  0.5195 -0.1285  0.2855
  177SOL    HW2  706   0.497   1.989   0.800  0.5588 -0.1164  0.4296
  177SOL    HW3  707   0.416   1.950   0.922  1.0055 -1.8015  0.1868
  177SOL    MW4  708   0.423   1.959   0.836  0.5888 -0.3476  0.2915
  178SOL     OW  709   1.085   1.040   0.792 -0.3485  0.5550  0.2922
  178SOL    HW2  710   1.124   0.968   0.841 -1.6957 -0.0559  0.5083
  178SOL    HW3  711   0.999   1.053   0.833 -0.6083  1.4933 -0.5159
  178SOL    MW4  712   1.079   1.033   0.804 -0.5606  0.5982  0.2141
  179SOL     OW  713   3.743   0.329   0.305 -0.3823  0.2220  0.3590
  179SOL    HW2  714   3.685   0.343   0.230 -0.1544 -0.0856  0.1226
  179SOL    HW3  715   3.696   0.266   0.359 -0.3650  0.1337  0.2719
  179SOL    MW4  716   3.729   0.322   0.302 -0.3499  0.1698  0.3163
  180SOL     OW  717   3.695   3.771   0.470  0.0502  0.3914 -0.0438
  180SOL    HW2  718   3.652   3.856   0.473  1.7319  1.2586  0.3918
  180SOL    HW3  719   3.784   3.790   0.442  0.3709 -1.2618 -0.2112
  180SOL    MW4  720   3.701   3.785   0.467  0.3144  0.2877 -0.0084
  181SOL     OW  721   3.162   0.157   0.493 -0.0753  0.2164  0.0558
  181SOL    HW2  722   3.174   0.069   0.457  1.4027  0.2665  0.4047
  181SOL    HW3  723   3.086   0.192   0.446  0.4954 -0.5224 -1.4558
  181SOL    MW4  724   3.153   0.150   0.482  0.1950  0.1256 -0.0976
  182SOL     OW  725   2.430   3.670   0.718  0.3417 -0.3554  0.2639
  182SOL    HW2  726   2.409   3.687   0.626  1.8913 -1.5185 -0.3317
  182SOL    HW3  727   2.405   3.578   0.731  2.5193 -0.9757  0.2615
  182SOL    MW4  728   2.424   3.660   0.708  0.8334 -0.5907  0.1850
  183SOL     OW  729   4.129   0.929   0.449  0.0091 -0.1300 -0.1756
  183SOL    HW2  730   4.144   1.023   0.463  1.5246 -0.2642 -0.8286
  183SOL    HW3  731   4.035   0.923   0.429 -0.1349  1.2193  0.0189
  183SOL    MW4  732   4.118   0.941   0.448  0.1900  0.0303 -0.2361
  184SOL     OW  733   2.471   2.089   0.768 -0.1600 -0.1602 -0.0051
  184SOL    HW2  734   2.476   2.064   0.675 -1.7816 -1.8888  0.3441
  184SOL    HW3  735   2.379   2.077   0.791  0.0578  1.1350  1.6100
  184SOL    MW4  736   2.459   2.084   0.758 -0.3452 -0.2174  0.2540
  185SOL     OW  737   1.513   2.867   0.807  0.5353  0.0849 -0.3245
  185SOL    HW2  738   1.434   2.823   0.838  0.8429 -0.6671 -0.5991
  185SOL    HW3  739   1.502   2.958   0.836 -1.1219  0.3299 -1.6311
  185SOL    MW4  740   1.501   2.873   0.815  0.3573  0.0180 -0.5331
  186SOL     OW  741   3.370   2.058   0.755 -0.3219 -0.2711 -0.3195
  186SOL    HW2  742   3.283   2.044   0.793  0.0637 -1.8172  0.0022
  186SOL    HW3  743   3.430   2.012   0.813  0.8852  1.8684  0.1908
  186SOL    MW4  744   3.366   2.050   0.767 -0.1118 -0.1928 -0.2097
  187SOL     OW  745   1.489   1.930   0.860  0.1262  0.4290 -0.6505
  187SOL    HW2  746   1.445   2.011   0.835 -0.1197  0.0863 -1.3159
  187SOL    HW3  747   1.471   1.922   0.954 -0.5260  0.7212 -0.7478
  187SOL    MW4  748   1.481   1.940   0.869  0.0077  0.4223 -0.7511
  188SOL     OW  749   3.140   4.012   0.268 -0.5909 -0.2118 -0.3143
  188SOL    HW2  750   3.199   4.074   0.311 -3.2656  1.5023  1.0575
  188SOL    HW3  751   3.175   4.003   0.180  1.4497  1.1048  0.3171
  188SOL    MW4  752   3.152   4.019   0.262 -0.6745  0.1880 -0.0500
  189SOL     OW  753   2.673   4.272   0.899  0.3606  0.3436 -0.5234
  189SOL    HW2  754   2.669   4.269   0.994 -0.8649 -0.3054 -0.5901
  189SOL    HW3  755   2.674   4.180   0.872  0.8812  0.5229 -1.1339
  189SOL    MW4  756   2.673   4.259   0.908  0.2676  0.2816 -0.6128
  190SOL     OW  757   2.296   3.295   0.521 -0.1557 -0.0962  0.0459
  190SOL    HW2  758   2.355   3.247   0.463 -0.0461 -0.0234  0.0967
  190SOL    HW3  759   2.221   3.237   0.533  0.0554 -0.3250  0.2506
  190SOL    MW4  760   2.294   3.281   0.515 -0.1134 -0.1168  0.0796
  191SOL     OW  761   4.376   2.330   0.483 -0.1557 -0.2289  0.0334
  191SOL    HW2  762   4.403   2.370   0.566 -1.4921 -0.6073  0.6636
  191SOL    HW3  763   4.459   2.307   0.440  0.5597  0.2534  1.1125
  191SOL    MW4  764   4.391   2.333   0.489 -0.2376 -0.2152  0.2589
  192SOL     OW  765   2.387   2.882   0.509 -0.1395 -0.0468  0.4412
  192SOL    HW2  766   2.416   2.899   0.598 -1.1809  1.4334  0.5284
  192SOL    HW3  767   2.410   2.962   0.461 -0.1751 -0.5689 -0.4690
  192SOL    MW4  768   2.394   2.895   0.514 -0.2816  0.0796  0.3326
  193SOL     OW  769   3.321   4.152   0.452 -0.2571  0.0453  0.1302
  193SOL    HW2  770   3.273   4.120   0.528 -0.1017 -0.1186  0.1618
  193SOL    HW3  771   3.410   4.117   0.464  0.1630  1.2575  0.6432
  193SOL    MW4  772   3.327   4.143   0.463 -0.1812  0.1836  0.2020
  194SOL     OW  773   0.857   2.158   0.462 -0.8531  0.0423 -0.0773
  194SOL    HW2  774   0.835   2.071   0.496 -1.1031 -0.3932 -1.2921
  194SOL    HW3  775   0.945   2.148   0.425  0.5033  1.1772  2.6795
  194SOL    MW4  776   0.866   2.145   0.461 -0.7071  0.1346  0.1261
  195SOL     OW  777   0.078   0.953   0.470 -0.4347 -0.4299  0.5786
  195SOL    HW2  778   0.166   0.920   0.490 -0.5499 -1.0585  0.0965
  195SOL    HW3  779   0.030   0.875   0.443 -0.4985  0.2503 -1.3633
  195SOL    MW4  780   0.083   0.938   0.469 -0.4583 -0.4231  0.2588
  196SOL     OW  781   1.335   4.111   0.539  0.4272 -0.8909 -0.3611
  196SOL    HW2  782   1.334   4.048   0.467 -1.5329 -2.7237  1.1872
  196SOL    HW3  783   1.263   4.172   0.519 -0.0106 -1.3036 -0.0689
  196SOL    MW4  784   1.325   4.111   0.527  0.1109 -1.1871 -0.1183
  197SOL     OW  785   4.484   3.039   0.471 -0.2186  0.3628 -0.0963
  197SOL    HW2  786   4.579   3.028   0.483 -0.2361 -0.2476 -0.4799
  197SOL    HW3  787   4.471   3.133   0.468  0.6048  0.4386 -1.7578
  197SOL    MW4  788   4.495   3.050   0.472 -0.1123  0.2922 -0.3661
  198SOL     OW  789   1.522   3.123   0.904 -0.2665  0.1853 -0.0359
  198SOL    HW2  790   1.536   3.133   0.998 -2.0151  0.3970  0.2175
  198SOL    HW3  791   1.598   3.166   0.864  1.2028 -1.1259  1.2631
  198SOL    MW4  792   1.534   3.130   0.911 -0.3034  0.0402  0.1689
  199SOL     OW  793   0.149   2.292   0.369 -0.1119 -0.3155 -0.1501
  199SOL    HW2  794   0.142   2.203   0.403  2.2421 -0.8654 -1.0194
  199SOL    HW3  795   0.220   2.288   0.305  0.6720  2.3890  0.4854
  199SOL    MW4  796   0.157   2.280   0.365  0.3021 -0.0313 -0.1809
  200SOL     OW  797   3.162   3.490   0.850 -0.1791  0.0923  0.1421
  200SOL    HW2  798   3.166   3.394   0.851 -1.9968 -0.0053  2.8803
  200SOL    HW3  799   3.086   3.510   0.795 -0.0083 -0.0495 -0.1474
  200SOL    MW4  800   3.153   3.480   0.842 -0.3964  0.0607  0.4652
  201SOL     OW  801   3.188   0.923   0.795  0.1134  0.2848  0.3524
  201SOL    HW2  802   3.100   0.887   0.803 -0.3610  1.4223  0.3651
  201SOL    HW3  803   3.182   1.010   0.834  0.7508  1.1605 -1.4505
  201SOL    MW4  804   3.175   0.930   0.802  0.1349  0.5504  0.1162
  202SOL     OW  805   3.888   2.282   0.403 -0.1990 -0.0133 -0.0901
  202SOL    HW2  806   3.891   2.201   0.454  0.0751  0.9972  1.5778
  202SOL    HW3  807   3.950   2.269   0.332  0.3720 -1.0148  0.5759
  202SOL    MW4  808   3.896   2.270   0.401 -0.0875 -0.0121  0.2179
  203SOL     OW  809   3.599   2.712   0.831  0.4056 -0.2029 -0.1529
  203SOL    HW2  810   3.678   2.764   0.817  1.9441 -1.9241  1.9468
  203SOL    HW3  811   3.599   2.692   0.924 -2.2038 -0.7747 -0.2303
  203SOL    MW4  812   3.610   2.716   0.841  0.2643 -0.5054  0.1139
  204SOL     OW  813   0.563   2.925   0.573  0.2008  0.1062 -0.1210
  204SOL    HW2  814   0.566   2.849   0.515 -0.3144 -0.7261  0.9236
  204SOL    HW3  815   0.473   2.956   0.569 -0.0755 -0.5275  0.9423
  204SOL    MW4  816   0.552   2.919   0.565  0.0964 -0.0872  0.1571
  205SOL     OW  817   1.449   1.131   0.901 -0.3434  0.0586 -0.4600
  205SOL    HW2  818   1.393   1.184   0.844  0.4307  0.2555 -1.0511
  205SOL    HW3  819   1.438   1.042   0.868 -0.7185  0.0221 -0.2366
  205SOL    MW4  820   1.440   1.126   0.889 -0.2907  0.0798 -0.5085
  206SOL     OW  821   0.923   1.396   0.510  0.2640 -0.0728  0.1780
  206SOL    HW2  822   0.869   1.346   0.449  1.6211 -0.3509 -0.8164
  206SOL    HW3  823   0.899   1.487   0.494 -0.1387 -0.2167 -0.0326
  206SOL    MW4  824   0.913   1.401   0.500  0.3899 -0.1285  0.0190
  207SOL     OW  825   4.035   1.701   0.732 -0.1415  0.2816  0.1635
  207SOL    HW2  826   3.960   1.644   0.748 -0.6940  0.6594 -1.0499
  207SOL    HW3  827   4.109   1.652   0.768 -0.9505 -0.0803  1.4075
  207SOL    MW4  828   4.035   1.687   0.739 -0.3211  0.2837  0.1676
  208SOL     OW  829   1.611   3.881   0.864  0.2609 -0.0214  0.1265
  208SOL    HW2  830   1.534   3.934   0.844 -0.4863 -0.9136  0.5850
  208SOL    HW3  831   1.684   3.930   0.827 -0.6608  0.2307 -1.4325
  208SOL    MW4  832   1.610   3.894   0.856  0.0407 -0.1058 -0.0187
  209SOL     OW  833   2.792   3.304   0.678  0.5504  0.2726  0.1178
  209SOL    HW2  834   2.838   3.253   0.745  0.7669  1.0280  0.5564
  209SOL    HW3  835   2.861   3.357   0.637 -0.0759  2.2512  1.5452
  209SOL    MW4  836   2.807   3.304   0.681  0.4963  0.6333  0.3640
  210SOL     OW  837   2.265   4.497   0.466  0.4877  0.7741  0.2129
  210SOL    HW2  838   2.173   4.473   0.477  0.0824  1.7720 -0.9762
  210SOL    HW3  839   2.307   4.415   0.439 -0.4642  0.8342 -1.4944
  210SOL    MW4  840   2.258   4.483   0.464  0.3086  0.9137 -0.1693
  211SOL     OW  841   0.545   0.884   0.391  0.1329  0.1458 -0.2759
  211SOL    HW2  842   0.509   0.962   0.348 -1.0491 -0.5527 -0.5622
  211SOL    HW3  843   0.469   0.840   0.428  0.8121 -0.8136 -0.0059
  211SOL    MW4  844   0.530   0.889   0.390  0.0665 -0.0730 -0.2780
  212SOL     OW  845   1.209   0.812   0.905 -0.0431 -0.1984 -0.1592
  212SOL    HW2  846   1.186   0.800   0.997  0.9025 -0.0252  0.1048
  212SOL    HW3  847   1.154   0.750   0.858 -1.4020  0.5611  0.4084
  212SOL    MW4  848   1.199   0.802   0.911 -0.0976 -0.0754 -0.0495
  213SOL     OW  849   0.222   4.411   0.717  0.1391  0.1245  0.1076
  213SOL    HW2  850   0.142   4.379   0.760 -0.7352  1.8643 -0.1887
  213SOL    HW3  851   0.293   4.367   0.763 -0.9567 -0.9298  0.8253
  213SOL    MW4  852   0.221   4.401   0.729 -0.1209  0.2150  0.1632
  214SOL     OW  853   3.907   3.438   0.477  0.3220  0.5347 -0.3046
  214SOL    HW2  854   3.926   3.528   0.452 -1.7667  0.8693 -0.7845
  214SOL    HW3  855   3.812   3.428   0.463  0.0946 -1.0194  1.9227
  214SOL    MW4  856   3.897   3.449   0.472  0.0164  0.3738 -0.0741
  215SOL     OW  857   4.015   1.385   0.418  0.4745 -0.2929  0.1595
  215SOL    HW2  858   3.926   1.393   0.453  0.2535 -0.2551 -0.4044
  215SOL    HW3  859   4.003   1.347   0.331  0.9184  0.7978 -0.3921
  215SOL    MW4  860   4.002   1.381   0.411  0.5039 -0.1440  0.0123
  216SOL     OW  861   4.488   0.630   0.439 -0.3383 -0.2581 -0.3341
  216SOL    HW2  862   4.455   0.551   0.480 -2.3102  1.3960  1.3878
  216SOL    HW3  863   4.414   0.665   0.389 -0.0890  1.4632  0.4453
  216SOL    MW4  864   4.474   0.624   0.438 -0.5656  0.1872 -0.0041
  217SOL     OW  865   1.249   0.227   0.902 -0.3164  0.1580  0.0910
  217SOL    HW2  866   1.192   0.151   0.909 -0.2541 -0.0688 -1.8602
  217SOL    HW3  867   1.262   0.255   0.993 -1.3284 -1.4088  0.7333
  217SOL    MW4  868   1.244   0.220   0.915 -0.4417 -0.0786 -0.0817
  218SOL     OW  869   0.740   0.101   0.434 -0.1318 -0.2082  0.2221
  218SOL    HW2  870   0.653   0.137   0.416  0.0271  1.3667  2.4256
  218SOL    HW3  871   0.800   0.158   0.386 -0.0958  0.6475  1.2777
  218SOL    MW4  872   0.736   0.113   0.425 -0.1061  0.1125  0.6521
  219SOL     OW  873   4.385   1.564   0.489 -0.3042  0.2421  0.5008
  219SOL    HW2  874   4.367   1.498   0.556 -1.2424  0.2624  0.2753
  219SOL    HW3  875   4.302   1.611   0.479  0.1725  1.0268  0.1874
  219SOL    MW4  876   4.372   1.561   0.497 -0.3651  0.3483  0.4297
  220SOL     OW  877   1.122   4.286   0.507  0.4896 -0.1000 -0.6407
  220SOL    HW2  878   1.126   4.347   0.433  0.2193  1.4493  0.5898
  220SOL    HW3  879   1.117   4.343   0.584  1.1430 -1.6895  0.5913
  220SOL    MW4  880   1.122   4.302   0.508  0.5401 -0.1053 -0.3158
  221SOL     OW  881   4.082   2.136   0.211 -0.6096  0.0966  0.5453
  221SOL    HW2  882   4.068   2.064   0.272 -0.6730 -1.2833 -1.0567
  221SOL    HW3  883   4.138   2.099   0.143  0.4624  1.9566  0.3960
  221SOL    MW4  884   4.087   2.121   0.210 -0.4765  0.1599  0.3143
  222SOL     OW  885   0.498   1.882   0.484  0.1359  0.2561 -0.1901
  222SOL    HW2  886   0.467   1.969   0.460 -2.8099 -0.8753 -0.6480
  222SOL    HW3  887   0.419   1.828   0.486  1.9144 -2.4206  0.0465
  222SOL    MW4  888   0.483   1.887   0.481 -0.0181 -0.2464 -0.2193
  223SOL     OW  889   1.744   3.760   0.360 -0.0845  0.0693  1.2169
  223SOL    HW2  890   1.670   3.788   0.306  0.1502 -0.2793  0.7040
  223SOL    HW3  891   1.707   3.697   0.421  0.3555 -2.6052 -1.1837
  223SOL    MW4  892   1.729   3.755   0.361  0.0045 -0.3296  0.8325
  224SOL     OW  893   1.902   0.168   0.461  0.1625 -0.2176 -0.0191
  224SOL    HW2  894   1.861   0.098   0.410  0.6241  0.2596 -1.0579
  224SOL    HW3  895   1.840   0.241   0.456  0.2407 -0.1471  0.0520
  224SOL    MW4  896   1.888   0.168   0.454  0.2337 -0.1454 -0.1468
  225SOL     OW  897   2.136   0.277   0.347 -0.0129 -0.1200  0.3684
  225SOL    HW2  898   2.212   0.223   0.366  0.0625  0.4942  1.8882
  225SOL    HW3  899   2.063   0.233   0.392 -0.6400 -0.8728 -1.3240
  225SOL    MW4  900   2.136   0.264   0.355 -0.0857 -0.1383  0.3456
  226SOL     OW  901   3.626   2.984   0.397  0.0050  0.1402 -0.0781
  226SOL    HW2  902   3.607   2.898   0.360 -0.3902  0.6190 -0.9950
  226SOL    HW3  903   3.722   2.987   0.403  0.0421 -0.1736 -0.4951
  226SOL    MW4  904   3.636   2.973   0.393 -0.0422  0.1619 -0.2541
  227SOL     OW  905   1.550   0.157   0.293  0.2316 -0.0822  0.0810
  227SOL    HW2  906   1.492   0.108   0.352  2.1201  0.3912  2.4264
  227SOL    HW3  907   1.583   0.092   0.232 -1.7794 -0.5952 -0.4707
  227SOL    MW4  908   1.547   0.142   0.293  0.2155 -0.0875  0.3177
  228SOL     OW  909   4.278   3.108   0.878 -0.0900 -0.8568  0.0397
  228SOL    HW2  910   4.276   3.021   0.839 -1.7914 -0.5746 -0.5696
  228SOL    HW3  911   4.197   3.149   0.848  0.4530  0.7570  0.7288
  228SOL    MW4  912   4.267   3.102   0.869 -0.2428 -0.6066  0.0502
  229SOL     OW  913   3.828   2.869   0.749 -0.4455 -0.0041  0.0417
  229SOL    HW2  914   3.895   2.817   0.793 -1.0568 -1.5553 -0.8390
  229SOL    HW3  915   3.825   2.834   0.660 -2.8900 -0.4072  0.2688
  229SOL    MW4  916   3.837   2.858   0.743 -0.8487 -0.2619 -0.0445
  230SOL     OW  917   2.704   1.928   0.835 -0.4639  0.6252  0.2611
  230SOL    HW2  918   2.723   1.917   0.928  0.6306  0.4292  0.0199
  230SOL    HW3  919   2.635   1.994   0.832  0.7905  2.0018  1.1185
  230SOL    MW4  920   2.697   1.935   0.846 -0.1540  0.7809  0.3424
  231SOL     OW  921   3.618   1.689   0.514  0.0351 -0.3088  0.1443
  231SOL    HW2  922   3.641   1.769   0.467 -1.4300 -0.2206 -0.4495
  231SOL    HW3  923   3.526   1.673   0.491 -0.3796 -0.8680  2.0965
  231SOL    MW4  924   3.609   1.697   0.505 -0.2129 -0.3710  0.3235
  232SOL     OW  925   0.068   2.033   0.490  0.8564 -0.3694  0.4720
  232SOL    HW2  926  -0.027   2.035   0.504  0.7845  0.3341 -0.0907
  232SOL    HW3  927   0.105   2.051   0.577  0.4670  0.0353  0.5580
  232SOL    MW4  928   0.060   2.036   0.504  0.7956 -0.2232  0.4091
  233SOL     OW  929   1.113   0.106   0.489 -0.6285  0.0355 -0.3626
  233SOL    HW2  930   1.148   0.189   0.456  2.3507 -0.5235  1.1956
  233SOL    HW3  931   1.047   0.131   0.554 -0.5790  1.1681 -0.7359
  233SOL    MW4  932   1.109   0.120   0.493 -0.2289  0.1112 -0.2062
  234SOL     OW  933   1.583   4.265   0.567 -0.0901 -0.0214  0.6000
  234SOL    HW2  934   1.558   4.295   0.655 -0.8812 -1.4853  0.8881
  234SOL    HW3  935   1.519   4.197   0.546 -0.6446  1.1553 -1.6244
  234SOL    MW4  936   1.571   4.260   0.576 -0.2676 -0.0593  0.3446
  235SOL     OW  937   1.576   1.521   0.830 -0.5375 -0.4780 -0.6006
  235SOL    HW2  938   1.577   1.530   0.926 -0.5177  0.3915 -0.6829
  235SOL    HW3  939   1.614   1.435   0.814  1.5696  0.2934  0.0570
  235SOL    MW4  940   1.581   1.511   0.841 -0.2569 -0.2615 -0.5247
  236SOL     OW  941   4.256   4.404   0.736  0.1150 -0.1160 -0.1538
  236SOL    HW2  942   4.295   4.403   0.648 -1.3154  0.3014 -0.8051
  236SOL    HW3  943   4.255   4.497   0.760 -0.2754 -0.1467 -0.0539
  236SOL    MW4  944   4.261   4.416   0.727 -0.1252 -0.0650 -0.2266
  237SOL     OW  945   4.290   2.832   0.783  0.0265  0.7136  0.2183
  237SOL    HW2  946   4.285   2.841   0.688  0.1707 -1.5908 -0.0482
  237SOL    HW3  947   4.370   2.781   0.797 -0.8530 -0.3449  1.4583
  237SOL    MW4  948   4.300   2.826   0.772 -0.0705  0.2699  0.3467
  238SOL     OW  949   3.998   0.216   0.304  0.5050 -0.3770  0.0656
  238SOL    HW2  950   4.054   0.289   0.328  1.2963 -0.5599 -1.1843
  238SOL    HW3  951   3.909   0.252   0.306  0.9096  0.6737 -0.7883
  238SOL    MW4  952   3.994   0.230   0.308  0.6628 -0.2625 -0.2120
  239SOL     OW  953   4.285   3.663   0.742 -0.7333 -0.2243 -0.4101
  239SOL    HW2  954   4.276   3.753   0.774 -0.5193 -0.5020  0.4517
  239SOL    HW3  955   4.206   3.619   0.772 -0.3461 -0.5853  0.1032
  239SOL    MW4  956   4.274   3.669   0.750 -0.6540 -0.3085 -0.2287
  240SOL     OW  957   3.353   1.552   0.824 -0.5281  0.2501 -0.1804
  240SOL    HW2  958   3.365   1.463   0.792 -1.4926  0.1111 -0.1557
  240SOL    HW3  959   3.330   1.542   0.916 -1.0291  0.5088 -0.2759
  240SOL    MW4  960   3.352   1.539   0.832 -0.7214  0.2659 -0.1897
  241SOL     OW  961   3.336   4.425   0.757 -0.1859  0.1620 -0.2410
  241SOL    HW2  962   3.326   4.517   0.783  0.7238  0.0902  0.3949
  241SOL    HW3  963   3.330   4.427   0.661  0.6031  1.0056 -0.2896
  241SOL    MW4  964   3.334   4.438   0.747  0.0382  0.2638 -0.1636
  242SOL     OW  965   0.629   4.427   0.716 -0.6200  0.7003 -0.2135
  242SOL    HW2  966   0.557   4.383   0.761  0.0596 -0.3648 -0.1513
  242SOL    HW3  967   0.630   4.515   0.754 -1.5187  0.5412  0.2043
  242SOL    MW4  968   0.620   4.433   0.727 -0.6489  0.5387 -0.1502
  243SOL     OW  969   4.024   4.022   0.801  0.2061 -0.7643  0.0349
  243SOL    HW2  970   4.037   4.111   0.835 -1.8277 -0.3358 -0.2747
  243SOL    HW3  971   4.112   3.985   0.799  1.0439  1.1133  0.5243
  243SOL    MW4  972   4.037   4.029   0.805  0.0483 -0.4601  0.0586
  244SOL     OW  973   4.095   0.480   0.398 -0.1873 -0.5967 -0.4585
  244SOL    HW2  974   4.144   0.554   0.361  0.0334 -0.6854 -0.3494
  244SOL    HW3  975   4.016   0.520   0.434  0.6323 -0.1829  0.9383
  244SOL    MW4  976   4.091   0.495   0.398 -0.0500 -0.5538 -0.2598
  245SOL     OW  977   4.268   0.740   0.296 -0.0928 -0.1794  0.0111
  245SOL    HW2  978   4.269   0.782   0.210  0.1219  1.0652  0.6204
  245SOL    HW3  979   4.221   0.800   0.353  1.4316 -0.0745  1.2131
  245SOL    MW4  980   4.262   0.753   0.292  0.1366 -0.0014  0.2500
  246SOL     OW  981   2.483   3.129   0.388  0.2544  0.3255 -0.1744
  246SOL    HW2  982   2.505   3.146   0.297  0.8480  0.5569  0.0138
  246SOL    HW3  983   2.566   3.101   0.429  0.2060  1.1980  0.5294
  246SOL    MW4  984   2.497   3.127   0.382  0.3263  0.4712 -0.0567
  247SOL     OW  985   3.081   3.818   0.735  0.1365  0.1524  0.1783
  247SOL    HW2  986   3.159   3.801   0.787 -0.1156  0.1980  0.5708
  247SOL    HW3  987   3.098   3.774   0.651 -0.0279 -1.0718  0.7711
  247SOL    MW4  988   3.093   3.810   0.731  0.0815 -0.0031  0.3083
  248SOL     OW  989   0.302   0.554   0.544  0.2896 -0.5108 -0.0984
  248SOL    HW2  990   0.302   0.506   0.626 -0.4317 -0.9572 -0.3519
  248SOL    HW3  991   0.220   0.530   0.502 -0.3552  1.3945  0.0264
  248SOL    MW4  992   0.291   0.544   0.549  0.1093 -0.3183 -0.1154
  249SOL     OW  993   2.647   1.285   0.446 -0.0332 -0.0895  0.2596
  249SOL    HW2  994   2.671   1.315   0.358 -0.8439 -1.0721 -0.3147
  249SOL    HW3  995   2.562   1.325   0.463  0.2133  0.2554  0.6715
  249SOL    MW4  996   2.639   1.294   0.437 -0.1076 -0.1736  0.2382
  250SOL     OW  997   3.162   1.839   0.485  0.0396  0.5791  0.1207
  250SOL    HW2  998   3.236   1.897   0.468  0.1526  0.4458  0.1585
  250SOL    HW3  999   3.166   1.821   0.579 -0.3199  0.9540  0.2065
  250SOL    MW4 1000   3.172   1.844   0.495  0.0071  0.6110  0.1370
  251SOL     OW 1001   2.449   1.806   0.370 -0.7157  0.1496 -0.2606
  251SOL    HW2 1002   2.394   1.794   0.447 -1.3407  1.4688 -0.4817
  251SOL    HW3 1003   2.399   1.767   0.298  0.0441 -1.4396  0.0438
  251SOL    MW4 1004   2.435   1.799   0.371 -0.6979  0.1140 -0.2496
  252SOL     OW 1005   3.069   0.151   0.778 -0.2406 -0.1307  0.1099
  252SOL    HW2 1006   3.094   0.159   0.686 -0.3271  0.2734  0.1210
  252SOL    HW3 1007   3.072   0.241   0.811 -0.3819 -0.2546  0.4560
  252SOL    MW4 1008   3.073   0.164   0.770 -0.2707 -0.0938  0.1570
  253SOL     OW 1009   0.176   2.320   0.852  0.1788 -0.4525  0.5166
  253SOL    HW2 1010   0.252   2.372   0.825 -0.0950 -0.0473  0.5187
  253SOL    HW3 1011   0.185   2.313   0.947 -0.4709  0.6934  0.6727
  253SOL    MW4 1012   0.187   2.326   0.861  0.0569 -0.2478  0.5375
  254SOL     OW 1013   3.089   3.504   0.375  0.1836  0.1709 -0.3222
  254SOL    HW2 1014   3.163   3.446   0.357  0.1881  0.2716 -0.6308
  254SOL    HW3 1015   3.128   3.591   0.382 -0.0174  0.3610 -1.4126
  254SOL    MW4 1016   3.104   3.508   0.373  0.1576  0.2093 -0.5068
  255SOL     OW 1017   1.591   3.582   0.514 -0.4120 -0.5190 -0.2419
  255SOL    HW2 1018   1.499   3.605   0.502  0.3185  1.7138 -1.9813
  255SOL    HW3 1019   1.606   3.590   0.609 -2.1708 -1.7183  0.1617
  255SOL    MW4 1020   1.581   3.586   0.525 -0.5477 -0.3827 -0.4182
  256SOL     OW 1021   4.447   2.432   0.717  0.7686 -0.0984  0.4931
  256SOL    HW2 1022   4.519   2.386   0.761  0.3481 -0.6802  0.5776
  256SOL    HW3 1023   4.370   2.412   0.769  0.5380  0.5099  0.3895
  256SOL    MW4 1024   4.446   2.423   0.729  0.6827 -0.0949  0.4906
  257SOL     OW 1025   3.129   2.442   0.778  0.4781  0.3207  0.3623
  257SOL    HW2 1026   3.040   2.418   0.804  0.4527 -0.3507 -0.3032
  257SOL    HW3 1027   3.186   2.395   0.838  0.4259 -1.4144 -0.9021
  257SOL    MW4 1028   3.125   2.433   0.789  0.4679  0.0032  0.1076
  258SOL     OW 1029   0.443   3.278   0.510  0.9080  0.2042  0.0529
  258SOL    HW2 1030   0.381   3.343   0.477 -0.1579 -0.5713  0.4899
  258SOL    HW3 1031   0.400   3.194   0.494  1.8988 -0.3482  0.2715
  258SOL    MW4 1032   0.429   3.276   0.503  0.8981  0.0290  0.1394
  259SOL     OW 1033   1.675   1.804   0.371  0.3903  0.2042  0.6336
  259SOL    HW2 1034   1.590   1.787   0.410 -0.6591 -1.8088 -2.3800
  259SOL    HW3 1035   1.723   1.721   0.379  0.6437  0.1650 -1.0469
  259SOL    MW4 1036   1.670   1.791   0.377  0.2853 -0.0666  0.0142
  260SOL     OW 1037   2.583   4.329   0.476 -0.4225  0.4930 -0.7033
  260SOL    HW2 1038   2.512   4.287   0.428  0.4343 -0.5148 -1.0951
  260SOL    HW3 1039   2.637   4.257   0.508 -0.0355  1.2179  0.3146
  260SOL    MW4 1040   2.581   4.314   0.474 -0.2584  0.4557 -0.6207
  261SOL     OW 1041   1.368   3.195   0.434 -0.1733  0.5042 -0.0430
  261SOL    HW2 1042   1.287   3.234   0.404  0.6930  1.6966 -0.8677
  261SOL    HW3 1043   1.359   3.190   0.529 -0.5162  2.2173  0.0294
  261SOL    MW4 1044   1.356   3.199   0.442 -0.1042  0.8876 -0.1422
  262SOL     OW 1045   0.125   1.526   0.314 -0.0323 -0.3897  0.2160
  262SOL    HW2 1046   0.159   1.436   0.308 -0.1211 -0.3917 -0.2817
  262SOL    HW3 1047   0.054   1.520   0.379 -0.0867 -0.6972  0.1330
  262SOL    MW4 1048   0.120   1.513   0.322 -0.0512 -0.4305  0.1394
  263SOL     OW 1049   0.235   4.666   0.791  0.3674  0.3426 -0.3919
  263SOL    HW2 1050   0.248   4.581   0.749 -0.3135  0.5931 -1.1211
  263SOL    HW3 1051   0.304   4.721   0.755  0.1833  0.3786 -0.6912
  263SOL    MW4 1052   0.245   4.662   0.781  0.2533  0.3804 -0.5276
  264SOL     OW 1053   4.482   4.347   0.871  0.0598  0.3786  0.0768
  264SOL    HW2 1054   4.396   4.365   0.833 -0.0157  0.2175  0.1724
  264SOL    HW3 1055   4.465   4.336   0.964  0.2244  0.6318  0.1372
  264SOL    MW4 1056   4.468   4.348   0.878  0.0716  0.3907  0.0974
  265SOL     OW 1057   0.237   3.906   0.857 -0.2052 -0.0719 -0.0106
  265SOL    HW2 1058   0.229   3.820   0.816 -0.5562 -0.0670  0.0474
  265SOL    HW3 1059   0.239   3.887   0.951 -1.5433  0.0769  0.0531
  265SOL    MW4 1060   0.236   3.892   0.864 -0.4280 -0.0516  0.0054
  266SOL     OW 1061   0.804   1.061   0.865  0.9510 -0.2498  0.4536
  266SOL    HW2 1062   0.739   1.011   0.815 -0.4937  1.1028  0.9284
  266SOL    HW3 1063   0.795   1.151   0.832  1.9002  0.1453  1.2367
  266SOL    MW4 1064   0.794   1.066   0.854  0.8857 -0.0192  0.6196
  267SOL     OW 1065   0.642   0.033   0.842  0.4264  0.5459 -0.0763
  267SOL    HW2 1066   0.664   0.045   0.934  0.3108  1.7205 -0.2012
  267SOL    HW3 1067   0.721   0.059   0.795 -0.4958  2.8037 -0.4325
  267SOL    MW4 1068   0.655   0.038   0.848  0.2894  0.9987 -0.1398
  268SOL     OW 1069   0.259   0.725   0.835  0.3373  0.1923  0.0895
  268SOL    HW2 1070   0.255   0.730   0.931 -0.9326  1.6427 -0.0236
  268SOL    HW3 1071   0.188   0.782   0.805  1.9565  1.2881 -1.7456
  268SOL    MW4 1072   0.249   0.733   0.844  0.3834  0.5282 -0.1676
  269SOL     OW 1073   1.405   2.406   0.814  0.8477 -0.1444 -0.2985
  269SOL    HW2 1074   1.396   2.311   0.802  1.9268 -0.3357  0.3058
  269SOL    HW3 1075   1.493   2.426   0.781 -0.1887  1.0064 -2.4429
  269SOL    MW4 1076   1.416   2.396   0.808  0.8533 -0.0178 -0.5017
  270SOL     OW 1077   0.495   3.255   0.787  0.0084  0.0020 -0.0170
  270SOL    HW2 1078   0.418   3.204   0.813 -1.0145  1.1129 -0.8140
  270SOL    HW3 1079   0.491   3.257   0.692  1.0337  0.0764 -0.0610
  270SOL    MW4 1080   0.484   3.249   0.778  0.0087  0.1583 -0.1280
  271SOL     OW 1081   0.808   4.504   0.313 -0.4279 -0.1401  0.1818
  271SOL    HW2 1082   0.800   4.523   0.219  1.8449  1.8422  0.3359
  271SOL    HW3 1083   0.775   4.584   0.356 -0.0789 -0.4607  1.0522
  271SOL    MW4 1084   0.802   4.517   0.306 -0.0820  0.0792  0.3169
  272SOL     OW 1085   1.661   2.433   0.710 -0.2311  0.1369  0.0550
  272SOL    HW2 1086   1.683   2.474   0.626  0.6090 -0.6237 -0.0990
  272SOL    HW3 1087   1.696   2.493   0.776 -0.6946  0.6233 -0.1378
  272SOL    MW4 1088   1.668   2.446   0.708 -0.1814  0.1007  0.0092
  273SOL     OW 1089   0.284   1.699   0.472  0.2659 -0.3093 -0.2653
  273SOL    HW2 1090   0.206   1.725   0.522  0.2505  1.0993 -0.9982
  273SOL    HW3 1091   0.250   1.647   0.399  0.2616 -2.0997  0.9783
  273SOL    MW4 1092   0.269   1.696   0.469  0.2633 -0.3597 -0.1979
  274SOL     OW 1093   1.295   3.911   0.345  0.0730 -0.1265  0.3389
  274SOL    HW2 1094   1.200   3.921   0.332  0.0657  0.2364  0.6491
  274SOL    HW3 1095   1.334   3.964   0.276  0.0459  0.0387  0.4490
  274SOL    MW4 1096   1.287   3.920   0.334  0.0685 -0.0568  0.3944
  275SOL     OW 1097   3.546   1.258   0.405  0.3464 -0.3728  0.5085
  275SOL    HW2 1098   3.533   1.176   0.452  0.1819  0.5679  2.1321
  275SOL    HW3 1099   3.466   1.309   0.422 -0.1318 -0.3630 -1.5544
  275SOL    MW4 1100   3.533   1.254   0.413  0.2616 -0.2474  0.4506
  276SOL     OW 1101   1.161   3.648   0.659  0.4211 -0.3043  0.2955
  276SOL    HW2 1102   1.216   3.647   0.581  0.4321  0.0810  0.2977
  276SOL    HW3 1103   1.163   3.739   0.688 -0.1984 -0.3006  0.3122
  276SOL    MW4 1104   1.169   3.660   0.653  0.3408 -0.2529  0.2980
  277SOL     OW 1105   3.369   2.317   0.873 -0.3646 -0.3898  0.5289
  277SOL    HW2 1106   3.366   2.317   0.969 -2.1677 -0.8620  0.4804
  277SOL    HW3 1107   3.376   2.224   0.850  0.4094 -0.2556  0.1998
  277SOL    MW4 1108   3.370   2.305   0.882 -0.5004 -0.4344  0.4791
  278SOL     OW 1109   0.818   0.921   0.323  0.1410  0.3832  0.3154
  278SOL    HW2 1110   0.845   0.934   0.414 -1.5732 -1.6924  1.1750
  278SOL    HW3 1111   0.726   0.895   0.329  0.0221  0.1331 -2.0107
  278SOL    MW4 1112   0.809   0.919   0.336 -0.1009  0.0764  0.1219
  279SOL     OW 1113   3.240   0.969   0.505 -0.2822 -0.1751 -0.1030
  279SOL    HW2 1114   3.209   0.969   0.595  0.0953 -0.1510  0.0291
  279SOL    HW3 1115   3.176   1.022   0.457 -1.0534 -1.0478 -0.0518
  279SOL    MW4 1116   3.228   0.976   0.510 -0.3342 -0.2871 -0.0788
  280SOL     OW 1117   1.336   3.651   0.444 -0.0689 -0.1674  0.0252
  280SOL    HW2 1118   1.298   3.587   0.384 -2.2668 -0.6643  1.8834
  280SOL    HW3 1119   1.327   3.735   0.400 -1.1280 -0.6071 -0.6049
  280SOL    MW4 1120   1.330   3.654   0.431 -0.4986 -0.2910  0.1872
  281SOL     OW 1121   0.885   0.339   0.306  0.0051  0.2601  0.2841
  281SOL    HW2 1122   0.978   0.358   0.317  0.0650  0.6481 -0.7761
  281SOL    HW3 1123   0.842   0.421   0.328 -0.0295  0.3319 -0.0528
  281SOL    MW4 1124   0.892   0.352   0.310  0.0084  0.3207  0.0997
  282SOL     OW 1125   2.236   2.509   0.808 -0.0042  0.0151  0.0067
  282SOL    HW2 1126   2.187   2.429   0.824 -1.3748  0.6523 -0.8225
  282SOL    HW3 1127   2.252   2.509   0.713 -0.3082  0.8769 -0.0495
  282SOL    MW4 1128   2.232   2.499   0.798 -0.2251  0.2129 -0.1101
  283SOL     OW 1129   0.927   4.100   0.475  0.3246  0.3659  0.1526
  283SOL    HW2 1130   1.000   4.159   0.495  0.2278  0.8161 -0.8432
  283SOL    HW3 1131   0.853   4.157   0.456  0.3702 -0.0455 -1.3461
  283SOL    MW4 1132   0.927   4.115   0.475  0.3179  0.3710 -0.1765
  284SOL     OW 1133   0.897   1.676   0.491  0.5142 -0.3823 -0.3668
  284SOL    HW2 1134   0.958   1.734   0.446  0.9059 -1.3375 -1.0974
  284SOL    HW3 1135   0.826   1.733   0.520  1.4385  0.6331 -0.0773
  284SOL    MW4 1136   0.896   1.691   0.489  0.6878 -0.3744 -0.4250
  285SOL     OW 1137   3.584   0.123   0.741 -0.4350 -0.1846  0.3083
  285SOL    HW2 1138   3.605   0.204   0.787 -0.9073  0.4297 -0.5319
  285SOL    HW3 1139   3.489   0.113   0.753 -0.6723  0.3365 -1.0783
  285SOL    MW4 1140   3.574   0.132   0.749 -0.5286 -0.0348  0.0145
  286SOL     OW 1141   4.291   3.914   0.848  0.4479  0.4912 -0.2513
  286SOL    HW2 1142   4.364   3.975   0.836  0.0876  0.9995  0.1398
  286SOL    HW3 1143   4.285   3.903   0.943  0.1683  0.2639 -0.2960
  286SOL    MW4 1144   4.300   3.920   0.859  0.3635  0.5283 -0.2056
  287SOL     OW 1145   0.235   3.793   0.496 -0.2947  0.2388 -0.3511
  287SOL    HW2 1146   0.168   3.861   0.502 -0.8058 -0.3390  0.4127
  287SOL    HW3 1147   0.231   3.747   0.580  1.5419  0.6611  0.0043
  287SOL    MW4 1148   0.226   3.796   0.508 -0.1198  0.2183 -0.2034
  288SOL     OW 1149   0.675   3.667   0.750  0.4098  0.0037 -0.2710
  288SOL    HW2 1150   0.750   3.615   0.779 -0.6681 -1.0257  0.7320
  288SOL    HW3 1151   0.599   3.618   0.781 -0.6402  1.7724  0.0147
  288SOL    MW4 1152   0.675   3.654   0.758  0.1290  0.1013 -0.1010
  289SOL     OW 1153   1.136   3.922   0.763 -0.4957 -0.2739  0.3361
  289SOL    HW2 1154   1.120   3.912   0.856 -0.2020  1.1355  0.5490
  289SOL    HW3 1155   1.070   3.985   0.733  0.3049  0.3805 -0.1084
  289SOL    MW4 1156   1.125   3.929   0.771 -0.3513 -0.0016  0.3055
  290SOL     OW 1157   3.375   4.430   0.474  0.1000  0.3135  0.1214
  290SOL    HW2 1158   3.308   4.473   0.420 -0.5142  0.2423  0.8118
  290SOL    HW3 1159   3.358   4.336   0.464  0.5088  0.2752 -0.2199
  290SOL    MW4 1160   3.364   4.423   0.466  0.0729  0.2991  0.1675
  291SOL     OW 1161   1.545   4.415   0.808  0.4863  0.0055  0.1780
  291SOL    HW2 1162   1.637   4.390   0.818  0.1246 -0.6539  2.1758
  291SOL    HW3 1163   1.543   4.509   0.826  0.6308 -0.1735  1.1549
  291SOL    MW4 1164   1.557   4.424   0.812  0.4577 -0.1051  0.5705
  292SOL     OW 1165   0.506   2.671   0.488  0.2534 -0.2612  0.0346
  292SOL    HW2 1166   0.563   2.621   0.430 -0.2156  0.6374 -1.2251
  292SOL    HW3 1167   0.433   2.612   0.508  1.4303 -1.3039  1.4041
  292SOL    MW4 1168   0.503   2.657   0.483  0.3468 -0.2802  0.0491
  293SOL     OW 1169   0.304   1.276   0.829  0.3631 -0.1191 -0.2687
  293SOL    HW2 1170   0.211   1.256   0.833  0.3295 -0.0012 -0.4672
  293SOL    HW3 1171   0.308   1.371   0.832  0.4188 -0.0789 -1.4100
  293SOL    MW4 1172   0.292   1.286   0.830  0.3660 -0.0983 -0.4455
  294SOL     OW 1173   0.036   1.774   0.597 -0.2311 -0.0984 -0.2023
  294SOL    HW2 1174  -0.009   1.705   0.548 -1.4451  0.6692 -0.2017
  294SOL    HW3 1175   0.067   1.835   0.530  2.3428 -1.4847 -0.3244
  294SOL    MW4 1176   0.034   1.773   0.582 -0.0517 -0.1801 -0.2183
  295SOL     OW 1177   0.535   0.686   0.841  0.2694  0.5540 -0.0418
  295SOL    HW2 1178   0.442   0.690   0.819  0.1483  0.0789  0.3774
  295SOL    HW3 1179   0.571   0.768   0.806  0.0309 -0.0262 -1.7314
  295SOL    MW4 1180   0.528   0.698   0.833  0.2219  0.4147 -0.2094
  296SOL     OW 1181   2.215   2.041   0.856 -0.3313  0.3122  0.0595
  296SOL    HW2 1182   2.159   2.009   0.785 -1.9360  1.2565  0.8591
  296SOL    HW3 1183   2.183   2.130   0.873  1.5133  0.9073  0.4550
  296SOL    MW4 1184   2.203   2.049   0.849 -0.2997  0.5153  0.2172
  297SOL     OW 1185   1.940   0.722   0.269  0.0474 -0.2245  0.3393
  297SOL    HW2 1186   1.863   0.683   0.227 -0.9711  1.0118  1.0240
  297SOL    HW3 1187   1.973   0.654   0.327 -1.2994 -0.3186  1.0056
  297SOL    MW4 1188   1.934   0.708   0.271 -0.2647 -0.0738  0.5175
  298SOL     OW 1189   1.119   3.083   0.824 -0.2030 -0.8525  0.0239
  298SOL    HW2 1190   1.197   3.119   0.781 -0.3317 -0.9428 -0.2836
  298SOL    HW3 1191   1.115   2.992   0.795 -1.6593 -0.2520 -1.7022
  298SOL    MW4 1192   1.129   3.076   0.815 -0.4121 -0.7852 -0.2444
  299SOL     OW 1193   2.284   0.111   0.741  0.1277 -0.1941 -0.1762
  299SOL    HW2 1194   2.370   0.081   0.772  0.6811 -0.0323 -1.4900
  299SOL    HW3 1195   2.289   0.100   0.646 -0.6453  1.5510 -0.4234
  299SOL    MW4 1196   2.296   0.105   0.732  0.0987  0.0575 -0.3821
  300SOL     OW 1197   1.506   4.485   0.404 -0.3844 -0.1440 -0.1071
  300SOL    HW2 1198   1.460   4.554   0.451 -0.8298 -0.0043 -0.7297
  300SOL    HW3 1199   1.513   4.413   0.466 -0.5628  0.2011  0.3096
  300SOL    MW4 1200   1.501   4.484   0.418 -0.4667 -0.0800 -0.1342
  301SOL     OW 1201   3.588   3.490   0.880  0.1270 -0.4332  0.3214
  301SOL    HW2 1202   3.514   3.529   0.833 -0.0173 -0.6560  0.3654
  301SOL    HW3 1203   3.665   3.534   0.843 -0.1021  0.6017  1.0623
  301SOL    MW4 1204   3.589   3.501   0.869  0.0777 -0.3261  0.4249
  302SOL     OW 1205   3.327   2.481   0.220 -0.5516 -0.0870 -0.4678
  302SOL    HW2 1206   3.239   2.467   0.184  0.1532 -0.2018 -2.2056
  302SOL    HW3 1207   3.359   2.393   0.238 -0.8352 -0.0384  0.2784
  302SOL    MW4 1208   3.320   2.468   0.218 -0.4961 -0.0957 -0.5987
  303SOL     OW 1209   0.458   4.022   0.749 -0.2295  0.1943 -0.3500
  303SOL    HW2 1210   0.472   4.000   0.657  0.9101 -0.8175  0.0549
  303SOL    HW3 1211   0.381   3.971   0.774  0.4650 -0.8362 -0.2941
  303SOL    MW4 1212   0.450   4.012   0.740  0.0125 -0.0752 -0.2892
  304SOL     OW 1213   0.195   2.081   0.737 -0.1528 -0.0865  0.0579
  304SOL    HW2 1214   0.268   2.026   0.765  0.3469  1.1166  1.1569
  304SOL    HW3 1215   0.210   2.165   0.781 -1.3715  0.6503 -0.9189
  304SOL    MW4 1216   0.206   2.085   0.747 -0.2477  0.1695  0.0740
  305SOL     OW 1217   4.274   2.871   0.495 -0.1719 -0.2304  0.0164
  305SOL    HW2 1218   4.351   2.928   0.486 -0.2483 -0.2522 -0.8222
  305SOL    HW3 1219   4.301   2.788   0.455 -0.7952 -0.0713 -0.7611
  305SOL    MW4 1220   4.288   2.868   0.488 -0.2642 -0.2123 -0.1969
  306SOL     OW 1221   1.109   2.812   0.764 -0.2998 -0.2737  0.1621
  306SOL    HW2 1222   1.182   2.768   0.809 -0.0875 -0.3371 -0.2472
  306SOL    HW3 1223   1.031   2.773   0.803 -0.1589  1.3125  2.1515
  306SOL    MW4 1224   1.108   2.801   0.775 -0.2532 -0.0728  0.3706
  307SOL     OW 1225   4.064   3.278   0.806 -0.4563 -0.3845  0.3935
  307SOL    HW2 1226   3.982   3.235   0.830 -1.2522  1.2873  0.7775
  307SOL    HW3 1227   4.071   3.265   0.712 -1.0838 -0.6979  0.3877
  307SOL    MW4 1228   4.054   3.271   0.797 -0.6441 -0.2053  0.4434
  308SOL     OW 1229   2.088   0.729   0.867  0.3867 -0.1561 -0.3545
  308SOL    HW2 1230   2.010   0.782   0.853  0.5236 -0.2763 -1.6490
  308SOL    HW3 1231   2.161   0.790   0.857  0.5634 -0.6661 -2.3519
  308SOL    MW4 1232   2.087   0.744   0.864  0.4281 -0.2393 -0.7888
  309SOL     OW 1233   0.672   2.034   0.842  0.4351 -0.0129  0.0523
  309SOL    HW2 1234   0.663   2.128   0.859 -0.5571  0.1434 -1.2489
  309SOL    HW3 1235   0.762   2.014   0.866  1.2261  1.6443 -1.3909
  309SOL    MW4 1236   0.682   2.044   0.847  0.4086  0.2264 -0.3098
  310SOL     OW 1237   0.699   3.930   0.846 -0.1002  0.1598 -0.7772
  310SOL    HW2 1238   0.609   3.957   0.826 -0.2234  0.4709  0.1498
  310SOL    HW3 1239   0.710   3.848   0.799 -0.6795  0.4155 -1.3676
  310SOL    MW4 1240   0.688   3.923   0.837 -0.1929  0.2346 -0.7328
  311SOL     OW 1241   3.810   4.161   0.468 -0.2722  0.1295  0.2051
  311SOL    HW2 1242   3.816   4.254   0.443 -1.0271 -0.4076 -2.1342
  311SOL    HW3 1243   3.900   4.130   0.469 -0.0317  0.8447  0.7942
  311SOL    MW4 1244   3.822   4.169   0.465 -0.3401  0.1530 -0.0258
  312SOL     OW 1245   2.737   4.560   0.465  0.4945  0.3327  0.4321
  312SOL    HW2 1246   2.676   4.486   0.466  1.1094 -0.1823  0.0660
  312SOL    HW3 1247   2.821   4.523   0.492  1.0741  0.6589 -0.8811
  312SOL    MW4 1248   2.740   4.545   0.468  0.6521  0.3078  0.2105
  313SOL     OW 1249   0.023   2.673   0.826  0.5618  0.1469 -0.3271
  313SOL    HW2 1250   0.002   2.679   0.919 -0.7750  0.4944 -0.6417
  313SOL    HW3 1251  -0.001   2.584   0.801 -0.5876  0.5508 -0.6920
  313SOL    MW4 1252   0.017   2.662   0.835  0.2338  0.2460 -0.4167
  314SOL     OW 1253   1.833   4.056   0.778  0.0016  0.0782 -0.0544
  314SOL    HW2 1254   1.908   3.997   0.787 -0.0373  0.1885  1.1144
  314SOL    HW3 1255   1.841   4.092   0.690  0.9232 -0.4465 -0.1961
  314SOL    MW4 1256   1.844   4.053   0.768  0.1181  0.0235  0.0811
  315SOL     OW 1257   3.870   0.912   0.350  0.3948  0.6144  0.3564
  315SOL    HW2 1258   3.802   0.846   0.334 -0.2065  1.1617  0.6105
  315SOL    HW3 1259   3.837   0.990   0.307  0.9043  0.8592  0.4192
  315SOL    MW4 1260   3.856   0.913   0.343  0.3827  0.7189  0.3982
  316SOL     OW 1261   2.435   3.905   0.857  0.0943 -0.2705 -0.4432
  316SOL    HW2 1262   2.511   3.955   0.826 -0.3869 -0.3828 -1.8570
  316SOL    HW3 1263   2.436   3.826   0.803 -1.4243  0.0534 -0.9603
  316SOL    MW4 1264   2.445   3.901   0.846 -0.1695 -0.2426 -0.6979
  317SOL     OW 1265   0.281   2.494   0.516  0.2652 -0.1653  0.2580
  317SOL    HW2 1266   0.225   2.437   0.465 -0.9578  0.7165  0.5839
  317SOL    HW3 1267   0.335   2.435   0.569 -1.3727 -1.0153  1.0087
  317SOL    MW4 1268   0.281   2.479   0.516 -0.1123 -0.1611  0.4000
  318SOL     OW 1269   2.678   2.241   0.424 -0.3386 -0.1561 -0.3079
  318SOL    HW2 1270   2.762   2.201   0.446 -0.1183  0.3473 -0.2334
  318SOL    HW3 1271   2.690   2.334   0.441 -1.0192 -0.1240  0.0207
  318SOL    MW4 1272   2.691   2.248   0.429 -0.3993 -0.0854 -0.2547
  319SOL     OW 1273   1.099   4.513   0.323  0.0215  0.0842  0.6752
  319SOL    HW2 1274   1.117   4.592   0.374 -0.2801  1.2088 -0.9255
  319SOL    HW3 1275   1.004   4.502   0.329 -0.0313  0.2944  0.2596
  319SOL    MW4 1276   1.089   4.522   0.331 -0.0252  0.2603  0.4092
  320SOL     OW 1277   4.251   1.566   0.858 -0.1530  0.0110  0.2440
  320SOL    HW2 1278   4.256   1.475   0.829  1.9638 -0.0492  0.7316
  320SOL    HW3 1279   4.219   1.561   0.948  0.0576 -0.2667  0.3047
  320SOL    MW4 1280   4.248   1.553   0.866  0.1540 -0.0336  0.3163
  321SOL     OW 1281   1.830   2.188   0.731 -0.0488 -0.5677 -0.2513
  321SOL    HW2 1282   1.812   2.135   0.654 -0.6694  0.2364 -0.6696
  321SOL    HW3 1283   1.779   2.268   0.718 -0.0924 -0.3802  0.9492
  321SOL    MW4 1284   1.821   2.192   0.720 -0.1365 -0.4369 -0.1481
  322SOL     OW 1285   1.136   0.375   0.395 -0.2197  0.1316  0.0499
  322SOL    HW2 1286   1.145   0.399   0.488  0.4268 -0.0159  0.0299
  322SOL    HW3 1287   1.151   0.456   0.347 -1.0211  0.3040  0.0922
  322SOL    MW4 1288   1.140   0.389   0.401 -0.2402  0.1349  0.0528
  323SOL     OW 1289   0.749   1.211   0.369  0.0558 -0.0607 -0.4343
  323SOL    HW2 1290   0.752   1.116   0.355 -0.4157  0.1240 -1.8460
  323SOL    HW3 1291   0.658   1.235   0.352  0.4426  0.8192 -1.2910
  323SOL    MW4 1292   0.738   1.201   0.365  0.0447  0.0797 -0.7336
  324SOL     OW 1293   3.184   1.764   0.740 -0.4382 -0.0533  0.0446
  324SOL    HW2 1294   3.181   1.828   0.811  0.1025 -1.6008  1.4866
  324SOL    HW3 1295   3.243   1.696   0.771  0.9446 -0.0696 -2.4961
  324SOL    MW4 1296   3.191   1.763   0.753 -0.1844 -0.2596 -0.1003
  325SOL     OW 1297   0.252   1.557   0.894 -0.2057 -0.0700  0.1779
  325SOL    HW2 1298   0.165   1.583   0.863 -0.1918 -0.0852  0.1268
  325SOL    HW3 1299   0.311   1.624   0.860 -0.3951  0.7563  1.4409
  325SOL    MW4 1300   0.248   1.570   0.885 -0.2289  0.0370  0.3378
  326SOL     OW 1301   0.829   2.455   0.738  0.0634  0.2923 -0.2283
  326SOL    HW2 1302   0.906   2.425   0.688  0.0444  0.9351 -0.6445
  326SOL    HW3 1303   0.853   2.542   0.769 -0.2039  0.1800  0.2951
  326SOL    MW4 1304   0.843   2.462   0.735  0.0256  0.3623 -0.2142
  327SOL     OW 1305   0.889   3.246   0.742 -0.4879  0.7483  0.1980
  327SOL    HW2 1306   0.968   3.201   0.772 -0.1181  1.2651  0.0152
  327SOL    HW3 1307   0.855   3.189   0.672  0.2282  0.9685 -0.3437
  327SOL    MW4 1308   0.895   3.232   0.737 -0.3446  0.8455  0.1024
  328SOL     OW 1309   4.489   3.263   0.795  0.2062 -0.2634  0.2705
  328SOL    HW2 1310   4.426   3.205   0.838  0.0745 -0.5696 -0.3297
  328SOL    HW3 1311   4.474   3.250   0.701 -0.3095  1.2901  0.1208
  328SOL    MW4 1312   4.479   3.253   0.788  0.1208 -0.0988  0.1716
  329SOL     OW 1313   1.601   0.014   0.881 -0.3048  0.1784 -0.6538
  329SOL    HW2 1314   1.693   0.024   0.858 -0.4512  0.6510 -1.0279
  329SOL    HW3 1315   1.602  -0.010   0.974  0.2844 -1.6582 -1.1082
  329SOL    MW4 1316   1.613   0.012   0.890 -0.2463 -0.0015 -0.7631
  330SOL     OW 1317   1.267   1.283   0.745  0.2127 -0.3594  0.2931
  330SOL    HW2 1318   1.216   1.357   0.778  0.7819  0.6091 -0.9391
  330SOL    HW3 1319   1.205   1.211   0.741 -0.7798  0.5042 -0.0929
  330SOL    MW4 1320   1.252   1.283   0.749  0.1569 -0.1177  0.0796
  331SOL     OW 1321   0.460   3.530   0.852  0.0823 -0.9958  0.1123
  331SOL    HW2 1322   0.452   3.519   0.947  0.4918 -2.2047  0.0151
  331SOL    HW3 1323   0.460   3.441   0.818 -0.2443 -0.5580 -1.0449
  331SOL    MW4 1324   0.459   3.517   0.860  0.0933 -1.0975 -0.0532
  332SOL     OW 1325   1.770   4.563   0.487  0.1618 -0.3209  0.1369
  332SOL    HW2 1326   1.677   4.540   0.479 -0.3725  1.7810  0.1077
  332SOL    HW3 1327   1.775   4.617   0.565  1.3691 -0.3456  0.0922
  332SOL    MW4 1328   1.758   4.567   0.496  0.2506 -0.0469  0.1271
  333SOL     OW 1329   0.561   0.452   0.494  0.4702  0.0630 -0.0042
  333SOL    HW2 1330   0.627   0.505   0.450 -0.7585  0.3297 -1.5775
  333SOL    HW3 1331   0.480   0.503   0.485 -0.0886 -0.5653  1.3137
  333SOL    MW4 1332   0.559   0.466   0.487  0.2344  0.0153 -0.0379
  334SOL     OW 1333   2.240   4.022   0.725 -0.0839 -0.3171 -0.2134
  334SOL    HW2 1334   2.300   3.973   0.781 -0.4066 -1.5038 -0.8840
  334SOL    HW3 1335   2.246   4.112   0.756  0.5612 -0.7727  1.0088
  334SOL    MW4 1336   2.249   4.027   0.737 -0.0414 -0.5338 -0.1407
  335SOL     OW 1337   3.723   1.432   0.515 -0.0110 -0.3985 -0.1540
  335SOL    HW2 1338   3.645   1.392   0.477  0.0085 -0.8793  0.3122
  335SOL    HW3 1339   3.706   1.526   0.512 -1.0941 -0.5535  0.9845
  335SOL    MW4 1340   3.711   1.439   0.510 -0.1513 -0.4824  0.0577
  336SOL     OW 1341   1.794   4.325   0.885  0.0699  0.2345 -0.7555
  336SOL    HW2 1342   1.797   4.325   0.980 -0.2179 -1.6441 -0.7177
  336SOL    HW3 1343   1.827   4.239   0.860 -0.6302  0.4037 -2.3221
  336SOL    MW4 1344   1.799   4.314   0.894 -0.0605  0.0090 -0.9572
  337SOL     OW 1345   2.513   4.435   0.755  0.1868  0.1093  0.0659
  337SOL    HW2 1346   2.542   4.421   0.664  0.4210 -0.6988  0.2634
  337SOL    HW3 1347   2.557   4.367   0.805 -1.0574 -0.3308  0.5715
  337SOL    MW4 1348   2.522   4.424   0.749  0.0536 -0.0554  0.1587
  338SOL     OW 1349   2.483   2.057   0.489 -0.7003  0.2968 -0.4152
  338SOL    HW2 1350   2.552   2.107   0.444  0.0698 -0.2872  0.0917
  338SOL    HW3 1351   2.480   1.973   0.443  0.8606 -0.7286  1.2506
  338SOL    MW4 1352   2.492   2.053   0.477 -0.3927  0.0845 -0.1285
  339SOL     OW 1353   1.831   0.355   0.841  0.6876  0.0463  0.2102
  339SOL    HW2 1354   1.909   0.394   0.803 -0.2072  1.4452 -0.2283
  339SOL    HW3 1355   1.761   0.375   0.778 -0.1255 -0.6981  0.8637
  339SOL    MW4 1356   1.832   0.363   0.828  0.4623  0.1327  0.2386
  340SOL     OW 1357   1.026   3.081   0.439 -0.3300  0.5964 -0.4021
  340SOL    HW2 1358   1.057   2.990   0.444  0.5967  0.9411  0.1407
  340SOL    HW3 1359   0.931   3.074   0.454 -0.2167 -0.2495 -0.0314
  340SOL    MW4 1360   1.017   3.068   0.442 -0.1928  0.5303 -0.2816
  341SOL     OW 1361   2.016   4.428   0.774  0.0700  0.3148  0.3656
  341SOL    HW2 1362   2.030   4.517   0.806  0.1454  0.7705 -0.9075
  341SOL    HW3 1363   1.945   4.394   0.829 -0.5576  1.4707  0.2996
  341SOL    MW4 1364   2.008   4.435   0.786 -0.0029  0.5274  0.1889
  342SOL     OW 1365   0.044   1.171   0.845  0.1038 -0.5914 -0.1255
  342SOL    HW2 1366   0.024   1.158   0.938  0.7057 -1.4493 -0.1164
  342SOL    HW3 1367   0.083   1.089   0.817  0.9501  0.0583 -0.8657
  342SOL    MW4 1368   0.046   1.159   0.854  0.2949 -0.6189 -0.2220
  343SOL     OW 1369   1.895   1.123   0.924  0.3121 -0.5172  0.4985
  343SOL    HW2 1370   1.827   1.179   0.888  0.7071  0.0958  0.6917
  343SOL    HW3 1371   1.877   1.036   0.889 -0.4431 -0.3121  0.3886
  343SOL    MW4 1372   1.884   1.119   0.915  0.2646 -0.4093  0.5095
  344SOL     OW 1373   4.480   1.949   0.874 -0.1076  0.3100 -0.3277
  344SOL    HW2 1374   4.557   1.986   0.832  0.7953  0.3603  1.3142
  344SOL    HW3 1375   4.500   1.855   0.883  0.0856  0.4499  0.7647
  344SOL    MW4 1376   4.493   1.941   0.870  0.0370  0.3351  0.0331
  345SOL     OW 1377   3.642   0.729   0.394  0.0256 -0.4299  0.3470
  345SOL    HW2 1378   3.583   0.662   0.361 -0.7473 -0.0297  0.8973
  345SOL    HW3 1379   3.587   0.806   0.407  0.6501 -0.0655  0.9123
  345SOL    MW4 1380   3.627   0.731   0.392  0.0060 -0.3290  0.4942
  346SOL     OW 1381   2.410   1.391   0.518 -0.0259  0.0882 -0.9134
  346SOL    HW2 1382   2.331   1.337   0.511  0.7352 -1.0947 -0.4098
  346SOL    HW3 1383   2.395   1.444   0.596 -0.5300  0.2151 -1.0929
  346SOL    MW4 1384   2.397   1.391   0.527  0.0080 -0.0511 -0.8706
  347SOL     OW 1385   1.150   1.532   0.823 -0.1949 -0.2025  0.2408
  347SOL    HW2 1386   1.214   1.589   0.781 -1.4820  0.2823 -1.1080
  347SOL    HW3 1387   1.072   1.586   0.831 -0.4356 -0.7620  1.9353
  347SOL    MW4 1388   1.148   1.546   0.819 -0.3965 -0.2123  0.2864
  348SOL     OW 1389   1.689   0.360   0.418  0.6054  0.0542 -0.0365
  348SOL    HW2 1390   1.638   0.289   0.379 -1.0926  0.0923  2.0489
  348SOL    HW3 1391   1.689   0.429   0.352 -0.3083 -0.7297 -0.8587
  348SOL    MW4 1392   1.682   0.359   0.404  0.2609 -0.0442  0.1302
  349SOL     OW 1393   0.331   0.833   0.562 -0.2705 -0.1717 -0.1703
  349SOL    HW2 1394   0.303   0.742   0.557  0.0948 -0.2119 -1.6291
  349SOL    HW3 1395   0.354   0.845   0.654  1.1554 -2.0062 -0.2474
  349SOL    MW4 1396   0.331   0.822   0.574 -0.0342 -0.4190 -0.3730
  350SOL     OW 1397   2.455   2.355   0.889  0.2722  0.1620 -0.1285
  350SOL    HW2 1398   2.449   2.292   0.817 -1.1396 -0.5469  0.5763
  350SOL    HW3 1399   2.387   2.420   0.870  0.8467  0.7556 -0.1698
  350SOL    MW4 1400   2.445   2.355   0.877  0.1617  0.1468 -0.0410
  351SOL     OW 1401   2.220   0.753   0.195 -0.1416  0.0842 -0.4571
  351SOL    HW2 1402   2.228   0.658   0.187  0.3117  0.1484 -0.7569
  351SOL    HW3 1403   2.126   0.768   0.206 -0.1799 -0.4235 -0.0624
  351SOL    MW4 1404   2.208   0.743   0.196 -0.0868  0.0257 -0.4446
  352SOL     OW 1405   1.728   2.665   0.880 -0.3131  0.0233  0.0207
  352SOL    HW2 1406   1.652   2.722   0.865  0.4197  1.6034  2.0716
  352SOL    HW3 1407   1.801   2.712   0.841 -0.3157 -1.3597 -1.6895
  352SOL    MW4 1408   1.728   2.679   0.873 -0.2168  0.0493  0.0657
  353SOL     OW 1409   1.945   2.786   0.772  0.1454 -0.1588  0.0017
  353SOL    HW2 1410   2.022   2.782   0.829  0.4696 -0.9493 -0.4938
  353SOL    HW3 1411   1.933   2.880   0.756  1.1615 -0.0384 -0.1308
  353SOL    MW4 1412   1.954   2.798   0.777  0.3222 -0.2472 -0.0812
  354SOL     OW 1413   3.852   1.552   0.874 -0.1033 -0.2985 -0.3652
  354SOL    HW2 1414   3.765   1.589   0.862  0.6979  1.5339 -0.6469
  354SOL    HW3 1415   3.852   1.473   0.820 -0.8714  0.9005 -2.1528
  354SOL    MW4 1416   3.841   1.546   0.865 -0.0989  0.1015 -0.6382
  355SOL     OW 1417   2.107   1.264   0.794 -0.1480  0.4144 -0.2495
  355SOL    HW2 1418   2.189   1.236   0.833  0.0971 -0.1376 -1.1446
  355SOL    HW3 1419   2.041   1.206   0.832  0.1125 -0.2277 -0.7668
  355SOL    MW4 1420   2.109   1.253   0.804 -0.0813  0.2569 -0.4359
  356SOL     OW 1421   2.399   3.737   0.442  0.3950 -0.1880 -0.4502
  356SOL    HW2 1422   2.336   3.673   0.408  0.1406 -0.7759  1.0726
  356SOL    HW3 1423   2.362   3.822   0.419 -1.1763 -0.5102  0.7557
  356SOL    MW4 1424   2.386   3.740   0.434  0.1541 -0.3081 -0.0902
  357SOL     OW 1425   1.141   2.821   0.487  0.0880 -0.3525 -0.3128
  357SOL    HW2 1426   1.144   2.733   0.448  1.3733 -0.2411 -0.5008
  357SOL    HW3 1427   1.134   2.805   0.581  0.3708 -0.6669 -0.3424
  357SOL    MW4 1428   1.140   2.807   0.495  0.2949 -0.3793 -0.3415
  358SOL     OW 1429   1.299   3.470   0.826  0.8810 -0.0298  0.6078
  358SOL    HW2 1430   1.366   3.537   0.810 -0.1250  0.3441 -2.3544
  358SOL    HW3 1431   1.219   3.507   0.790  0.1462 -2.4946 -0.3649
  358SOL    MW4 1432   1.297   3.483   0.819  0.6513 -0.3056  0.0887
  359SOL     OW 1433   1.364   0.553   0.572  0.5637 -0.0541  0.2343
  359SOL    HW2 1434   1.300   0.490   0.606 -0.0642  1.0303  1.0796
  359SOL    HW3 1435   1.446   0.529   0.615  0.2845 -0.1620  0.7060
  359SOL    MW4 1436   1.366   0.541   0.582  0.4440  0.0747  0.4080
  360SOL     OW 1437   2.369   4.223   0.361  0.0441  0.0888 -0.0187
  360SOL    HW2 1438   2.359   4.219   0.265 -3.5427  0.8490  0.2283
  360SOL    HW3 1439   2.328   4.142   0.392 -0.7791  0.8597  0.9477
  360SOL    MW4 1440   2.362   4.211   0.352 -0.5378  0.2908  0.1414
  361SOL     OW 1441   0.762   3.111   0.520  0.3381  0.0610 -0.0908
  361SOL    HW2 1442   0.683   3.058   0.532  0.5114 -0.3781 -0.8829
  361SOL    HW3 1443   0.729   3.198   0.497  0.0438  0.4346  1.6639
  361SOL    MW4 1444   0.747   3.115   0.519  0.3221  0.0524  0.0362
  362SOL     OW 1445   3.215   3.189   0.533 -0.0174 -0.2459  0.4258
  362SOL    HW2 1446   3.273   3.115   0.513  0.9762  0.4440  0.7139
  362SOL    HW3 1447   3.268   3.266   0.514 -0.5010  0.4025  1.6803
  362SOL    MW4 1448   3.230   3.189   0.528  0.0499 -0.0693  0.6294
  363SOL     OW 1449   3.793   2.344   0.837  0.0771 -0.3670  0.0232
  363SOL    HW2 1450   3.779   2.361   0.930  1.4547  0.8203  0.0245
  363SOL    HW3 1451   3.714   2.377   0.795 -0.0314  0.1938  0.6522
  363SOL    MW4 1452   3.781   2.350   0.844  0.2445 -0.1363  0.1064
  364SOL     OW 1453   1.914   0.960   0.475  0.1131 -0.1429 -0.3043
  364SOL    HW2 1454   1.921   0.895   0.405  0.4811 -0.0627 -0.3443
  364SOL    HW3 1455   2.005   0.979   0.499  0.0360  0.9661 -0.8573
  364SOL    MW4 1456   1.927   0.954   0.469  0.1515  0.0140 -0.3826
  365SOL     OW 1457   4.245   4.597   0.396 -0.3747 -0.1018  0.0711
  365SOL    HW2 1458   4.229   4.617   0.304 -0.5042  0.3095  0.1815
  365SOL    HW3 1459   4.301   4.667   0.427  0.9915 -1.1090 -0.0983
  365SOL    MW4 1460   4.250   4.609   0.388 -0.2115 -0.1804  0.0633
  366SOL     OW 1461   2.940   0.808   0.835 -0.5335  0.0053 -0.0596
  366SOL    HW2 1462   2.925   0.808   0.929 -1.9248  1.7800 -0.2497
  366SOL    HW3 1463   2.923   0.718   0.807 -1.4060 -0.2195  1.1836
  366SOL    MW4 1464   2.936   0.796   0.843 -0.8322  0.2098  0.0793
  367SOL     OW 1465   1.986   4.393   0.505  0.0474 -0.0547 -0.2730
  367SOL    HW2 1466   1.999   4.421   0.595  0.1588 -1.8796  0.3024
  367SOL    HW3 1467   1.904   4.434   0.478 -0.0022  0.4714  0.6627
  367SOL    MW4 1468   1.977   4.402   0.513  0.0555 -0.2261 -0.0736
  368SOL     OW 1469   2.336   1.156   0.898  0.4522 -0.0120  0.3003
  368SOL    HW2 1470   2.315   1.171   0.990  0.4777 -0.3918  0.3659
  368SOL    HW3 1471   2.427   1.185   0.890  1.1658 -2.0079  0.8838
  368SOL    MW4 1472   2.345   1.162   0.909  0.5497 -0.3255  0.3859
  369SOL     OW 1473   1.854   0.093   0.722 -0.3693  0.1821 -0.0225
  369SOL    HW2 1474   1.901   0.118   0.642  0.6411  0.0403  0.5192
  369SOL    HW3 1475   1.824   0.176   0.759 -0.3736  0.2900 -0.2693
  369SOL    MW4 1476   1.856   0.107   0.716 -0.2365  0.1776  0.0164
  370SOL     OW 1477   3.591   0.922   0.765  0.0315  0.0183  0.0737
  370SOL    HW2 1478   3.529   0.858   0.801 -0.2423 -0.5025 -1.2846
  370SOL    HW3 1479   3.676   0.879   0.770 -0.1626 -0.5141 -0.9078
  370SOL    MW4 1480   3.594   0.908   0.770 -0.0302 -0.1207 -0.2350
  371SOL     OW 1481   4.273   2.584   0.404  0.3166  0.2475  0.0009
  371SOL    HW2 1482   4.318   2.501   0.419 -0.2183  0.0332  0.4509
  371SOL    HW3 1483   4.264   2.590   0.309  0.5606 -0.0996 -0.0462
  371SOL    MW4 1484   4.277   2.574   0.394  0.2782  0.1734  0.0540
  372SOL     OW 1485   0.863   0.130   0.671  0.4182 -0.2009 -0.2732
  372SOL    HW2 1486   0.854   0.222   0.695  0.9241 -0.0261 -0.7466
  372SOL    HW3 1487   0.839   0.127   0.578  0.1881 -0.5801 -0.2033
  372SOL    MW4 1488   0.859   0.141   0.662  0.4546 -0.2279 -0.3265
  373SOL     OW 1489   3.397   0.756   0.895  0.0807 -0.1348 -0.4593
  373SOL    HW2 1490   3.320   0.803   0.861  0.6099  0.1618 -1.2496
  373SOL    HW3 1491   3.409   0.683   0.834  0.1731 -0.4213 -0.0958
  373SOL    MW4 1492   3.388   0.753   0.882  0.1627 -0.1335 -0.5156
  374SOL     OW 1493   1.763   3.478   0.851  0.8802 -0.1975  0.0485
  374SOL    HW2 1494   1.834   3.534   0.818  1.0418  0.2690  1.1548
  374SOL    HW3 1495   1.782   3.468   0.944 -1.0931  0.8258  0.5918
  374SOL    MW4 1496   1.775   3.484   0.859  0.6412 -0.0009  0.2661
  375SOL     OW 1497   4.069   0.893   0.768 -0.3070 -0.3037  0.4113
  375SOL    HW2 1498   4.106   0.892   0.680 -1.1969  0.8803 -0.0049
  375SOL    HW3 1499   4.064   0.986   0.790  0.0114 -0.6033  1.7557
  375SOL    MW4 1500   4.073   0.905   0.759 -0.3824 -0.1870  0.5338
  376SOL     OW 1501   2.432   2.885   0.799  0.0107  0.5261  0.6050
  376SOL    HW2 1502   2.433   2.971   0.842  0.7658  0.8438 -0.0411
  376SOL    HW3 1503   2.347   2.848   0.823 -0.7060  1.8283  0.1482
  376SOL    MW4 1504   2.421   2.892   0.808  0.0157  0.7398  0.4595
  377SOL     OW 1505   2.460   2.620   0.440 -0.0772 -0.1055  0.4021
  377SOL    HW2 1506   2.434   2.710   0.456 -0.8259 -0.2254 -0.1110
  377SOL    HW3 1507   2.436   2.603   0.349 -0.0949 -0.8751  0.5403
  377SOL    MW4 1508   2.453   2.629   0.430 -0.1783 -0.2228  0.3526
  378SOL     OW 1509   2.425   3.137   0.909  0.0161  0.3877 -0.1457
  378SOL    HW2 1510   2.471   3.218   0.890  0.5720 -0.0088 -0.4937
  378SOL    HW3 1511   2.444   3.119   1.001 -0.6010  0.9642  0.1009
  378SOL    MW4 1512   2.434   3.145   0.919  0.0080  0.4115 -0.1591
  379SOL     OW 1513   1.969   3.606   0.490 -0.2548  0.5295 -0.4826
  379SOL    HW2 1514   1.930   3.649   0.414  0.6809 -0.0625 -1.3251
  379SOL    HW3 1515   2.063   3.605   0.471 -0.0120  0.3541  0.6773
  379SOL    MW4 1516   1.976   3.612   0.477 -0.0993  0.4282 -0.4407
  380SOL     OW 1517   0.053   0.893   0.758 -0.7022  0.1469 -0.0954
  380SOL    HW2 1518  -0.030   0.855   0.784  0.1633 -1.0769  0.9642
  380SOL    HW3 1519   0.038   0.927   0.670 -1.8926 -1.4265 -0.5225
  380SOL    MW4 1520   0.040   0.893   0.750 -0.7450 -0.2222 -0.0119
  381SOL     OW 1521   1.655   1.368   0.440 -0.4496 -0.0061 -0.0147
  381SOL    HW2 1522   1.721   1.435   0.457 -0.4410 -0.0246  0.0259
  381SOL    HW3 1523   1.577   1.417   0.412  0.9185 -0.1594 -4.6176
  381SOL    MW4 1524   1.653   1.383   0.438 -0.2680 -0.0288 -0.6166
  382SOL     OW 1525   3.138   4.286   0.880  0.3113  0.1027 -0.4738
  382SOL    HW2 1526   3.052   4.314   0.849 -0.8213  0.3682  2.7336
  382SOL    HW3 1527   3.199   4.348   0.841 -1.3422  2.1531  0.1456
  382SOL    MW4 1528   3.135   4.298   0.871 -0.0563  0.4082  0.0311
  383SOL     OW 1529   2.031   3.873   0.847  0.8335 -0.9636  0.3802
  383SOL    HW2 1530   2.042   3.873   0.942  1.4608 -1.7696  0.3161
  383SOL    HW3 1531   2.108   3.919   0.814  0.4546 -0.3990  0.2751
  383SOL    MW4 1532   2.043   3.879   0.855  0.8663 -0.9954  0.3578
  384SOL     OW 1533   1.553   2.782   0.543  0.7647  0.1468  0.1458
  384SOL    HW2 1534   1.544   2.822   0.629  0.7284 -0.3145  0.3581
  384SOL    HW3 1535   1.503   2.839   0.485  0.3673  0.1750  0.5173
  384SOL    MW4 1536   1.545   2.795   0.546  0.7075  0.0897  0.2228
  385SOL     OW 1537   3.784   4.637   0.851  0.5002 -0.3222  0.1716
  385SOL    HW2 1538   3.860   4.688   0.822  0.4707  1.6012  3.2948
  385SOL    HW3 1539   3.709   4.690   0.823  0.3494 -0.9495 -0.6305
  385SOL    MW4 1540   3.784   4.651   0.843  0.4764 -0.1512  0.4779
  386SOL     OW 1541   3.329   0.032   0.809 -0.2673 -0.1569  0.0258
  386SOL    HW2 1542   3.239   0.061   0.794 -0.5689 -0.6113  0.8765
  386SOL    HW3 1543   3.337   0.028   0.905  0.4851 -0.6342 -0.0497
  386SOL    MW4 1544   3.318   0.035   0.820 -0.2079 -0.2798  0.1281
  387SOL     OW 1545   3.808   4.447   0.472  0.2385  0.1638  0.0299
  387SOL    HW2 1546   3.719   4.477   0.455  0.0536 -0.1695  0.3880
  387SOL    HW3 1547   3.857   4.527   0.490 -0.4184  0.2144  1.7090
  387SOL    MW4 1548   3.802   4.462   0.472  0.1274  0.1265  0.2987
  388SOL     OW 1549   0.908   3.533   0.815  0.4894  0.5780 -0.4739
  388SOL    HW2 1550   0.987   3.567   0.773  1.2934 -1.3069 -0.5246
  388SOL    HW3 1551   0.893   3.448   0.773 -0.5521  0.1222  0.7756
  388SOL    MW4 1552   0.916   3.526   0.804  0.4580  0.2691 -0.3157
  389SOL     OW 1553   2.262   4.298   0.850 -0.1289 -0.2183 -0.1535
  389SOL    HW2 1554   2.186   4.352   0.830  0.4538  0.0391 -1.7507
  389SOL    HW3 1555   2.337   4.348   0.817  0.7342 -0.5343  1.2653
  389SOL    MW4 1556   2.262   4.311   0.843  0.0619 -0.2261 -0.1771
  390SOL     OW 1557   2.923   1.902   0.377  0.5772 -0.4704 -0.2692
  390SOL    HW2 1558   3.006   1.879   0.420  0.4861 -0.9443 -0.3416
  390SOL    HW3 1559   2.910   1.995   0.397  1.1508 -0.3822 -0.2980
  390SOL    MW4 1560   2.932   1.911   0.385  0.6408 -0.5213 -0.2825
  391SOL     OW 1561   2.789   0.895   0.630  0.3584  0.0650 -0.6924
  391SOL    HW2 1562   2.847   0.866   0.701  0.8689  0.2401 -1.0285
  391SOL    HW3 1563   2.783   0.990   0.642 -1.2716 -0.1609  0.3781
  391SOL    MW4 1564   2.796   0.904   0.641  0.2107  0.0583 -0.5955
  392SOL     OW 1565   3.845   2.800   0.478 -0.0775 -0.2999 -0.1339
  392SOL    HW2 1566   3.909   2.730   0.471 -0.4621 -0.7949  1.2613
  392SOL    HW3 1567   3.762   2.760   0.453 -0.2433 -0.2736  0.3606
  392SOL    MW4 1568   3.842   2.786   0.474 -0.1501 -0.3617  0.1154
  393SOL     OW 1569   0.669   2.832   0.808 -0.0721 -0.3228  0.4859
  393SOL    HW2 1570   0.686   2.923   0.831 -2.4661 -0.0552  1.2842
  393SOL    HW3 1571   0.643   2.836   0.716 -1.2550 -0.0564  0.8265
  393SOL    MW4 1572   0.668   2.845   0.798 -0.5441 -0.2523  0.6362
  394SOL     OW 1573   2.311   1.565   0.747 -0.1247  0.0506 -0.1082
  394SOL    HW2 1574   2.313   1.646   0.696 -0.5672  0.1889  0.0908
  394SOL    HW3 1575   2.226   1.566   0.790  1.1780  1.1574  2.5953
  394SOL    MW4 1576   2.300   1.576   0.746 -0.0112  0.2149  0.2747
  395SOL     OW 1577   2.596   0.131   0.534 -0.1913  0.1593  0.2698
  395SOL    HW2 1578   2.663   0.199   0.535  0.1452 -0.0828 -2.7155
  395SOL    HW3 1579   2.643   0.051   0.512 -1.3611 -0.0920 -1.4063
  395SOL    MW4 1580   2.611   0.129   0.532 -0.3012  0.0942 -0.3453
  396SOL     OW 1581   2.920   0.544   0.735  0.5141 -0.0346  0.2173
  396SOL    HW2 1582   2.983   0.491   0.783 -0.3043 -0.2343  1.0900
  396SOL    HW3 1583   2.856   0.481   0.702  0.2118  0.2701  0.2125
  396SOL    MW4 1584   2.920   0.529   0.737  0.3662 -0.0207  0.3319
  397SOL     OW 1585   3.995   2.544   0.479 -0.0275 -0.0556  0.1635
  397SOL    HW2 1586   4.087   2.543   0.453 -0.2399  0.3567 -0.6204
  397SOL    HW3 1587   3.962   2.458   0.454 -0.4431  0.6438 -1.7181
  397SOL    MW4 1588   4.003   2.533   0.472 -0.1104  0.0911 -0.1882
  398SOL     OW 1589   2.896   2.324   0.884  0.0038 -0.1960  0.0716
  398SOL    HW2 1590   2.824   2.378   0.850  1.2771  1.0349 -0.7213
  398SOL    HW3 1591   2.882   2.324   0.979 -0.3928  0.9933  0.0298
  398SOL    MW4 1592   2.884   2.331   0.892  0.1194  0.1233 -0.0385
  399SOL     OW 1593   2.687   2.766   0.863 -0.5311  0.0671  0.1810
  399SOL    HW2 1594   2.605   2.805   0.832 -0.8019 -0.1391  0.6359
  399SOL    HW3 1595   2.677   2.763   0.958  0.4461  1.0418  0.3200
  399SOL    MW4 1596   2.675   2.771   0.871 -0.4379  0.1685  0.2593
  400SOL     OW 1597   3.622   1.169   0.867 -0.4412 -0.0049 -0.1357
  400SOL    HW2 1598   3.612   1.153   0.961 -0.9351 -0.9117 -0.3308
  400SOL    HW3 1599   3.612   1.082   0.827  0.1460  0.3129 -0.9950
  400SOL    MW4 1600   3.619   1.155   0.874 -0.4289 -0.0826 -0.2748
  401SOL     OW 1601   0.421   2.720   0.855  0.0992  0.2725  0.3858
  401SOL    HW2 1602   0.508   2.756   0.839  0.1305 -0.0469 -0.1823
  401SOL    HW3 1603   0.368   2.753   0.782  0.6299 -2.5064 -1.3182
  401SOL    MW4 1604   0.425   2.729   0.843  0.1733 -0.1363  0.0860
  402SOL     OW 1605   1.770   1.950   0.856 -0.1669  0.0690 -0.2809
  402SOL    HW2 1606   1.676   1.943   0.840 -0.0190 -0.6352 -0.8966
  402SOL    HW3 1607   1.794   2.035   0.818 -0.4805  0.0563 -0.5140
  402SOL    MW4 1608   1.761   1.960   0.849 -0.1887 -0.0256 -0.3929
  403SOL     OW 1609   2.937   2.883   0.773 -0.2022  0.2405  0.0536
  403SOL    HW2 1610   2.864   2.830   0.804 -0.6565  0.8732  0.0720
  403SOL    HW3 1611   3.013   2.824   0.777 -0.5301 -0.1308  0.9583
  403SOL    MW4 1612   2.938   2.868   0.778 -0.3054  0.2750  0.1754
  404SOL     OW 1613   4.037   3.008   0.516 -0.3056  0.0735 -0.1901
  404SOL    HW2 1614   4.116   2.958   0.496 -0.3915  0.4653 -1.5619
  404SOL    HW3 1615   3.965   2.950   0.496 -0.3845 -0.2125  0.8717
  404SOL    MW4 1616   4.038   2.994   0.511 -0.3274  0.0875 -0.2310
  405SOL     OW 1617   2.257   1.763   0.558  0.2304  0.1688  0.1151
  405SOL    HW2 1618   2.190   1.831   0.569  0.4949  0.7351 -1.5059
  405SOL    HW3 1619   2.210   1.691   0.516  0.0196 -0.5377  1.5510
  405SOL    MW4 1620   2.242   1.762   0.554  0.2375  0.1503  0.0907
  406SOL     OW 1621   0.254   3.475   0.419  0.5216 -0.3877 -0.0235
  406SOL    HW2 1622   0.298   3.558   0.403  2.3304 -0.9269  1.9600
  406SOL    HW3 1623   0.161   3.496   0.410  0.9992  1.5919 -0.6630
  406SOL    MW4 1624   0.247   3.489   0.416  0.8233 -0.1977  0.1538
  407SOL     OW 1625   2.211   3.535   0.375  0.3851 -0.1187 -0.3135
  407SOL    HW2 1626   2.247   3.464   0.428  1.5073  0.3055 -0.4954
  407SOL    HW3 1627   2.183   3.493   0.294  0.9733 -0.3678 -0.3881
  407SOL    MW4 1628   2.212   3.520   0.371  0.6107 -0.0956 -0.3474
  408SOL     OW 1629   3.169   4.575   0.361 -0.0900  0.4389  0.2424
  408SOL    HW2 1630   3.103   4.528   0.411 -0.3574  0.5691  0.0109
  408SOL    HW3 1631   3.127   4.595   0.278  0.6630 -0.5986 -0.4004
  408SOL    MW4 1632   3.155   4.572   0.357 -0.0259  0.3192  0.1270
  409SOL     OW 1633   4.123   1.651   0.452  0.4094  0.5088 -0.1303
  409SOL    HW2 1634   4.110   1.664   0.546  1.4335 -1.4516  0.3061
  409SOL    HW3 1635   4.082   1.567   0.433 -1.4199  1.7406 -1.8321
  409SOL    MW4 1636   4.116   1.642   0.461  0.3032  0.4127 -0.2972
  410SOL     OW 1637   3.589   4.293   0.854 -0.0209  0.1712 -0.4734
  410SOL    HW2 1638   3.667   4.339   0.822  0.0401  0.5501  0.1981
  410SOL    HW3 1639   3.516   4.337   0.810 -0.0682  1.8998  1.2432
  410SOL    MW4 1640   3.590   4.305   0.844 -0.0191  0.4493 -0.1583
  411SOL     OW 1641   4.055   1.165   0.809 -0.3894  0.2644  0.4200
  411SOL    HW2 1642   3.985   1.224   0.783  0.2841  0.6459 -0.5626
  411SOL    HW3 1643   4.055   1.168   0.905 -1.6948  0.2709  0.4228
  411SOL    MW4 1644   4.046   1.173   0.818 -0.4728  0.3156  0.2907
  412SOL     OW 1645   0.581   0.421   0.765  1.0780  0.1317 -0.2243
  412SOL    HW2 1646   0.571   0.510   0.797 -0.3104  0.2156 -0.8758
  412SOL    HW3 1647   0.592   0.431   0.670 -1.3938 -0.5019 -0.6173
  412SOL    MW4 1648   0.581   0.434   0.757  0.5687  0.0592 -0.3621
  413SOL     OW 1649   3.344   1.656   0.417 -0.2348  0.6035  0.8108
  413SOL    HW2 1650   3.279   1.715   0.454  0.5036  1.5108  0.6981
  413SOL    HW3 1651   3.344   1.580   0.476 -1.3215  0.6299  0.8542
  413SOL    MW4 1652   3.336   1.654   0.430 -0.2808  0.7267  0.8017
  414SOL     OW 1653   3.616   2.432   0.430  0.1299  0.7191 -0.7648
  414SOL    HW2 1654   3.696   2.381   0.421 -0.3916 -0.4393  0.9378
  414SOL    HW3 1655   3.600   2.436   0.524 -1.9740  0.6336 -1.0843
  414SOL    MW4 1656   3.624   2.426   0.441 -0.2165  0.5550 -0.5823
  415SOL     OW 1657   1.961   3.947   0.404  0.8501 -0.0242  0.1636
  415SOL    HW2 1658   1.917   4.028   0.431  1.5993 -0.3021  2.3634
  415SOL    HW3 1659   1.891   3.883   0.395  0.4588  0.3670  0.3828
  415SOL    MW4 1660   1.946   3.949   0.406  0.8973 -0.0092  0.4828
  416SOL     OW 1661   1.398   4.043   0.813 -0.0067  0.4123 -0.5128
  416SOL    HW2 1662   1.401   4.062   0.719 -0.7409 -0.5056 -0.7263
  416SOL    HW3 1663   1.312   4.003   0.827 -0.0017  0.7724  0.5991
  416SOL    MW4 1664   1.387   4.041   0.803 -0.1029  0.3387 -0.3943
  417SOL     OW 1665   1.668   0.722   0.854  0.0877 -0.6728 -0.4145
  417SOL    HW2 1666   1.656   0.644   0.800  0.1259 -0.6356 -0.4767
  417SOL    HW3 1667   1.603   0.783   0.822 -0.4920 -0.9758  0.1832
  417SOL    MW4 1668   1.658   0.719   0.842  0.0163 -0.7079 -0.3439
  418SOL     OW 1669   2.275   0.482   0.198  0.4185 -0.0737 -0.0095
  418SOL    HW2 1670   2.300   0.451   0.111 -2.7118 -0.8674 -0.6763
  418SOL    HW3 1671   2.248   0.403   0.245  0.7583  0.5331  1.2371
  418SOL    MW4 1672   2.275   0.468   0.192  0.0503 -0.0983  0.0670
  419SOL     OW 1673   1.669   0.604   0.249  0.0432  0.3186  0.1764
  419SOL    HW2 1674   1.643   0.561   0.168 -0.1447  0.4133  0.1852
  419SOL    HW3 1675   1.586   0.627   0.292  0.1361  1.4777 -0.2404
  419SOL    MW4 1676   1.655   0.602   0.244  0.0306  0.4840  0.1226
  420SOL     OW 1677   3.063   1.103   0.329  0.4852  0.0889 -0.3914
  420SOL    HW2 1678   3.017   1.024   0.300  2.4565 -1.1768 -0.1759
  420SOL    HW3 1679   3.082   1.150   0.248 -1.0494  0.5552 -0.4920
  420SOL    MW4 1680   3.060   1.099   0.314  0.5428 -0.0166 -0.3762
  421SOL     OW 1681   3.582   2.718   0.337 -0.2255  0.4870 -0.1502
  421SOL    HW2 1682   3.495   2.723   0.297 -0.5503  0.6196  0.5606
  421SOL    HW3 1683   3.590   2.626   0.363  0.2517  0.2573 -1.1023
  421SOL    MW4 1684   3.572   2.706   0.335 -0.2054  0.4742 -0.1821
  422SOL     OW 1685   3.375   2.005   0.478 -0.1601  0.0246 -0.3917
  422SOL    HW2 1686   3.358   2.092   0.442 -1.3167  0.2909  0.7566
  422SOL    HW3 1687   3.376   2.018   0.573  0.7437 -1.0318 -0.2432
  422SOL    MW4 1688   3.373   2.018   0.486 -0.1935 -0.0797 -0.2206
  423SOL     OW 1689   3.849   2.035   0.521 -0.4119  0.3559 -0.7160
  423SOL    HW2 1690   3.776   1.998   0.471 -1.4510  1.1100  0.2154
  423SOL    HW3 1691   3.926   1.989   0.488 -1.4310 -1.2529 -0.9332
  423SOL    MW4 1692   3.850   2.024   0.510 -0.6835  0.2431 -0.6217
  424SOL     OW 1693   4.176   1.173   0.549  0.1093  0.0065 -0.2036
  424SOL    HW2 1694   4.122   1.173   0.628 -0.6655 -0.2971 -0.7329
  424SOL    HW3 1695   4.134   1.236   0.491 -0.4303 -1.1877 -1.1307
  424SOL    MW4 1696   4.163   1.181   0.552 -0.0641 -0.1911 -0.3958
  425SOL     OW 1697   4.345   0.393   0.525  0.5510 -0.0064 -0.6338
  425SOL    HW2 1698   4.370   0.303   0.502  0.0524 -0.0946 -0.8509
  425SOL    HW3 1699   4.260   0.406   0.481 -0.4734 -0.2143  1.2309
  425SOL    MW4 1700   4.337   0.383   0.516  0.3501 -0.0454 -0.4164
  426SOL     OW 1701   4.273   0.517   0.766 -0.3332 -0.2059  0.4945
  426SOL    HW2 1702   4.285   0.485   0.677 -0.2555  0.5403  0.2352
  426SOL    HW3 1703   4.191   0.476   0.795 -0.0533 -0.9168  0.2985
  426SOL    MW4 1704   4.264   0.507   0.758 -0.2860 -0.2013  0.4344
  427SOL     OW 1705   1.619   3.314   0.483  0.2003  0.6441  0.2433
  427SOL    HW2 1706   1.535   3.285   0.449 -0.0353  0.9617  0.5516
  427SOL    HW3 1707   1.611   3.409   0.492  1.2657  0.9170 -1.5710
  427SOL    MW4 1708   1.607   3.323   0.480  0.3098  0.7220  0.0446
  428SOL     OW 1709   1.794   2.302   0.347 -0.0678  0.2919 -0.4506
  428SOL    HW2 1710   1.832   2.378   0.390 -0.4061  0.2357 -0.0469
  428SOL    HW3 1711   1.855   2.281   0.276  0.9125 -0.1038  0.4905
  428SOL    MW4 1712   1.807   2.309   0.343  0.0169  0.2323 -0.2732
  429SOL     OW 1713   3.053   1.641   0.234 -0.1161  0.0664  0.3899
  429SOL    HW2 1714   3.136   1.633   0.281 -0.1051 -0.3352  0.3014
  429SOL    HW3 1715   3.018   1.726   0.262  0.2313  0.1484  0.5754
  429SOL    MW4 1716   3.059   1.651   0.244 -0.0689  0.0242  0.4027
  430SOL     OW 1717   1.090   4.447   0.740 -0.1060 -0.0236 -0.0598
  430SOL    HW2 1718   1.154   4.409   0.800 -1.1880  1.6840  2.2510
  430SOL    HW3 1719   1.006   4.411   0.767 -0.8709  2.3421  0.8320
  430SOL    MW4 1720   1.088   4.437   0.751 -0.3496  0.5138  0.3628
  431SOL     OW 1721   1.102   1.861   0.430 -0.1472  0.1971  0.2542
  431SOL    HW2 1722   1.184   1.846   0.478 -0.1747  0.6473  0.4403
  431SOL    HW3 1723   1.111   1.949   0.394 -0.4734  0.1762  0.1178
  431SOL    MW4 1724   1.114   1.871   0.431 -0.1939  0.2538  0.2608
  432SOL     OW 1725   2.830   3.818   0.860  0.2529 -0.2231  0.5682
  432SOL    HW2 1726   2.917   3.814   0.822 -0.4231 -1.3336 -0.9170
  432SOL    HW3 1727   2.844   3.836   0.953  2.1903 -3.8358  1.0258
  432SOL    MW4 1728   2.843   3.820   0.867  0.4193 -0.8463  0.4326
  433SOL     OW 1729   3.565   4.036   0.512 -0.4764 -0.1632  0.3439
  433SOL    HW2 1730   3.562   4.025   0.607 -0.6632  0.9711  0.4772
  433SOL    HW3 1731   3.649   4.080   0.496 -0.3187 -0.5986 -0.0481
  433SOL    MW4 1732   3.576   4.041   0.522 -0.4802 -0.0710  0.3097
  434SOL     OW 1733   1.669   1.239   0.795 -0.0620  0.1511 -0.1500
  434SOL    HW2 1734   1.683   1.203   0.708  0.6162 -2.8713  1.1596
  434SOL    HW3 1735   1.602   1.183   0.834  0.1419  1.0467  1.5394
  434SOL    MW4 1736   1.662   1.227   0.789  0.0544 -0.1295  0.2457
  435SOL     OW 1737   2.126   3.447   0.928  0.0768  0.4329 -0.4061
  435SOL    HW2 1738   2.212   3.449   0.887 -0.4321  0.4921 -1.4870
  435SOL    HW3 1739   2.069   3.497   0.869 -1.0222 -0.8458 -0.4689
  435SOL    MW4 1740   2.130   3.454   0.915 -0.1353  0.2720 -0.5570
  436SOL     OW 1741   2.107   1.533   0.420  0.3549 -0.3585 -0.4171
  436SOL    HW2 1742   2.110   1.451   0.469  1.0505  0.0610  0.2521
  436SOL    HW3 1743   2.111   1.506   0.328 -1.2248 -1.1599 -0.2729
  436SOL    MW4 1744   2.108   1.518   0.414  0.2383 -0.4089 -0.3098
  437SOL     OW 1745   3.395   0.504   0.731  0.2478  0.0832 -0.2466
  437SOL    HW2 1746   3.450   0.443   0.779  1.2306  1.0608 -0.1067
  437SOL    HW3 1747   3.403   0.477   0.640  0.0805 -0.4545 -0.1037
  437SOL    MW4 1748   3.403   0.492   0.725  0.3554  0.1412 -0.2093
  438SOL     OW 1749   3.818   0.773   0.838 -0.3314 -0.0319  0.3759
  438SOL    HW2 1750   3.828   0.767   0.932 -0.0932  0.5656  0.3859
  438SOL    HW3 1751   3.896   0.819   0.807 -0.3228 -0.3758 -0.1297
  438SOL    MW4 1752   3.829   0.778   0.846 -0.2988  0.0015  0.3105
  439SOL     OW 1753   3.164   1.194   0.880  0.0935  0.5667  0.1284
  439SOL    HW2 1754   3.157   1.169   0.972  0.0127  1.3553  0.3407
  439SOL    HW3 1755   3.078   1.229   0.857 -0.3430 -0.9797 -0.6689
  439SOL    MW4 1756   3.152   1.196   0.889  0.0253  0.4667  0.0512
  440SOL     OW 1757   3.422   1.267   0.745 -0.0183 -0.1663  0.7206
  440SOL    HW2 1758   3.347   1.224   0.786 -0.0519 -0.3188  0.5023
  440SOL    HW3 1759   3.498   1.232   0.790  0.0062 -1.1276 -0.0549
  440SOL    MW4 1760   3.422   1.257   0.756 -0.0195 -0.3132  0.5895
  441SOL     OW 1761   4.473   0.113   0.734  0.3666 -0.2419 -0.4356
  441SOL    HW2 1762   4.484   0.199   0.774 -0.1983  0.5925 -2.0168
  441SOL    HW3 1763   4.557   0.069   0.743  0.0137 -0.3881  2.3580
  441SOL    MW4 1764   4.485   0.118   0.740  0.2455 -0.1511 -0.2757
  442SOL     OW 1765   0.415   2.257   0.270  0.0496  0.1335 -0.1391
  442SOL    HW2 1766   0.489   2.317   0.274  0.7779 -0.7697  0.0909
  442SOL    HW3 1767   0.412   2.216   0.357  0.0160 -0.7010 -0.5255
  442SOL    MW4 1768   0.424   2.259   0.282  0.1412 -0.0958 -0.1597
  443SOL     OW 1769   3.365   3.403   0.405 -0.4060 -0.1811  0.7977
  443SOL    HW2 1770   3.449   3.361   0.422 -0.4190 -0.5014  0.1138
  443SOL    HW3 1771   3.382   3.496   0.416  0.5674 -0.0616 -1.3329
  443SOL    MW4 1772   3.378   3.410   0.409 -0.2793 -0.2076  0.4264
  444SOL     OW 1773   3.590   1.912   0.902  0.5193  0.0469 -0.2890
  444SOL    HW2 1774   3.663   1.960   0.863  1.2417 -0.7905 -0.0052
  444SOL    HW3 1775   3.604   1.821   0.874 -0.5402 -0.0806 -0.4103
  444SOL    MW4 1776   3.602   1.906   0.893  0.4749 -0.0804 -0.2675
  445SOL     OW 1777   2.396   0.869   0.405  0.2566  0.0177 -0.7338
  445SOL    HW2 1778   2.478   0.918   0.394 -0.7337  1.9947  0.3408
  445SOL    HW3 1779   2.354   0.873   0.319 -0.3910  2.2101 -0.3606
  445SOL    MW4 1780   2.402   0.876   0.393  0.0405  0.5678 -0.5428
  446SOL     OW 1781   4.133   3.293   0.530  0.1707  0.4509  0.0708
  446SOL    HW2 1782   4.105   3.202   0.515  0.1519  0.3253  0.8507
  446SOL    HW3 1783   4.056   3.345   0.508 -0.0934  0.2181  0.4289
  446SOL    MW4 1784   4.119   3.287   0.525  0.1334  0.4037  0.2209
  447SOL     OW 1785   1.396   1.785   0.483 -0.5333 -0.2763  0.6144
  447SOL    HW2 1786   1.390   1.704   0.433  0.3195 -0.1464  0.2932
  447SOL    HW3 1787   1.399   1.757   0.575  3.0273 -0.8027  0.3763
  447SOL    MW4 1788   1.395   1.771   0.489  0.0490 -0.3286  0.5406
  448SOL     OW 1789   2.720   4.065   0.513  0.2230 -0.1063 -0.0772
  448SOL    HW2 1790   2.807   4.097   0.488 -0.2030 -0.0858 -1.6398
  448SOL    HW3 1791   2.714   3.978   0.472 -0.1425 -0.4857  0.7826
  448SOL    MW4 1792   2.731   4.058   0.504  0.1186 -0.1537 -0.1699
  449SOL     OW 1793   4.291   2.074   0.511 -0.2939  0.5239 -0.1340
  449SOL    HW2 1794   4.282   2.056   0.605 -0.2822 -0.9536 -0.3936
  449SOL    HW3 1795   4.315   2.166   0.506 -0.0757  0.5611  1.3263
  449SOL    MW4 1796   4.293   2.083   0.523 -0.2636  0.3338  0.0244
  450SOL     OW 1797   2.184   0.993   0.525 -0.0813 -0.1614 -0.0171
  450SOL    HW2 1798   2.196   0.980   0.619  1.0546  2.7077  0.2985
  450SOL    HW3 1799   2.249   0.937   0.484  1.7672  1.1355  1.0624
  450SOL    MW4 1800   2.194   0.984   0.532  0.3124  0.3883  0.1670
  451SOL     OW 1801   2.230   3.974   0.447 -0.4842 -0.1788  0.0724
  451SOL    HW2 1802   2.137   3.962   0.428  0.1090 -1.4613 -2.3721
  451SOL    HW3 1803   2.234   3.991   0.541 -3.1965  0.0952  0.1731
  451SOL    MW4 1804   2.218   3.974   0.457 -0.7638 -0.3118 -0.2368
  452SOL     OW 1805   3.852   0.514   0.761  0.0836 -0.2253 -0.5714
  452SOL    HW2 1806   3.836   0.601   0.796  0.5987 -0.4683  0.2670
  452SOL    HW3 1807   3.847   0.525   0.666 -0.7631  0.5358 -0.4460
  452SOL    MW4 1808   3.849   0.527   0.753  0.0399 -0.1569 -0.4443
  453SOL     OW 1809   1.226   1.402   0.489 -0.2475 -0.8398  0.0488
  453SOL    HW2 1810   1.239   1.383   0.582  1.2606 -0.7353 -0.1183
  453SOL    HW3 1811   1.135   1.429   0.482  0.0241  0.5872  1.7532
  453SOL    MW4 1812   1.216   1.403   0.500 -0.0127 -0.6377  0.2516
  454SOL     OW 1813   3.551   4.008   0.790  0.3590  1.0916 -0.2605
  454SOL    HW2 1814   3.559   4.103   0.796  0.9044  1.0446 -0.2319
  454SOL    HW3 1815   3.636   3.975   0.821  0.0717  0.5927 -0.0038
  454SOL    MW4 1816   3.563   4.016   0.795  0.3931  1.0195 -0.2229
  455SOL     OW 1817   3.322   3.864   0.875  0.2133  0.1557 -0.0985
  455SOL    HW2 1818   3.395   3.918   0.845 -0.3247  1.0899  0.2431
  455SOL    HW3 1819   3.311   3.888   0.967 -1.6000  1.2735 -0.5868
  455SOL    MW4 1820   3.330   3.875   0.883 -0.0969  0.4265 -0.1178
  456SOL     OW 1821   3.000   4.420   0.520  0.1359  0.4629 -0.4000
  456SOL    HW2 1822   2.980   4.416   0.614  1.8703 -0.3377 -0.0342
  456SOL    HW3 1823   2.989   4.331   0.489 -0.1683  0.6749 -0.8937
  456SOL    MW4 1824   2.996   4.408   0.528  0.3246  0.3852 -0.4169
  457SOL     OW 1825   3.644   0.357   0.879  0.1077  0.2781  0.6693
  457SOL    HW2 1826   3.725   0.397   0.845 -0.1228  0.3909  0.2575
  457SOL    HW3 1827   3.644   0.381   0.972  1.4334 -1.1871  1.0722
  457SOL    MW4 1828   3.655   0.365   0.887  0.2522  0.0997  0.6681
  458SOL     OW 1829   2.883   3.134   0.877 -0.3648 -0.4828 -0.2629
  458SOL    HW2 1830   2.972   3.168   0.866 -0.9474  0.8262 -0.9508
  458SOL    HW3 1831   2.889   3.042   0.848  0.5131 -0.0857 -1.3728
  458SOL    MW4 1832   2.896   3.126   0.871 -0.3259 -0.2577 -0.5001
  459SOL     OW 1833   3.378   3.615   0.745  0.0600 -0.2390  0.0070
  459SOL    HW2 1834   3.305   3.555   0.764 -0.4032  0.1659 -0.4842
  459SOL    HW3 1835   3.348   3.700   0.776 -0.3644  0.2658 -1.7403
  459SOL    MW4 1836   3.364   3.618   0.752 -0.0571 -0.1190 -0.2883
  460SOL     OW 1837   4.422   3.302   0.516 -0.5213 -0.0515  0.1560
  460SOL    HW2 1838   4.328   3.308   0.530 -0.2793 -0.6628  2.1360
  460SOL    HW3 1839   4.449   3.392   0.497 -1.4842  0.1382 -0.3390
  460SOL    MW4 1840   4.414   3.315   0.515 -0.6164 -0.1071  0.3519
  461SOL     OW 1841   0.210   4.259   0.490  0.0928 -0.0676 -0.2876
  461SOL    HW2 1842   0.220   4.320   0.563 -0.0046  1.6651 -1.6892
  461SOL    HW3 1843   0.299   4.244   0.458 -0.1594  2.1859 -2.1866
  461SOL    MW4 1844   0.223   4.265   0.495  0.0466  0.4583 -0.7231
  462SOL     OW 1845   1.425   0.952   0.488 -0.2167  0.0117  0.4389
  462SOL    HW2 1846   1.350   1.009   0.470 -0.8165 -1.0468 -0.5264
  462SOL    HW3 1847   1.501   1.009   0.476 -0.8135  0.7327 -0.0375
  462SOL    MW4 1848   1.425   0.967   0.484 -0.3746 -0.0328  0.2487
  463SOL     OW 1849   2.062   0.535   0.449 -0.6376  0.1856 -0.5164
  463SOL    HW2 1850   2.148   0.571   0.471 -1.3714  0.7907  1.5042
  463SOL    HW3 1851   2.080   0.449   0.412  0.8692  0.5614 -0.6801
  463SOL    MW4 1852   2.076   0.528   0.447 -0.5356  0.3150 -0.2714
  464SOL     OW 1853   0.847   0.389   0.808  0.0332 -0.3707  0.0663
  464SOL    HW2 1854   0.753   0.408   0.809  0.3397  1.1676  0.6197
  464SOL    HW3 1855   0.867   0.364   0.898  0.2034 -0.4904 -0.0039
  464SOL    MW4 1856   0.837   0.388   0.820  0.0961 -0.1836  0.1301
  465SOL     OW 1857   3.375   2.845   0.777 -0.0773 -0.2160  0.5870
  465SOL    HW2 1858   3.462   2.806   0.781  0.1010 -0.1488 -2.0220
  465SOL    HW3 1859   3.365   2.874   0.686 -2.8930 -0.3750  0.8007
  465SOL    MW4 1860   3.385   2.844   0.766 -0.4252 -0.2281  0.2710
  466SOL     OW 1861   0.132   4.445   0.298  0.1525  0.0609  0.3663
  466SOL    HW2 1862   0.162   4.410   0.214 -0.4457 -1.5760  0.8180
  466SOL    HW3 1863   0.168   4.385   0.363 -0.5932  0.4869  1.1773
  466SOL    MW4 1864   0.140   4.433   0.295 -0.0248 -0.0988  0.5329
  467SOL     OW 1865   1.676   1.108   0.546  0.1428 -0.0008 -0.0086
  467SOL    HW2 1866   1.674   1.188   0.493 -1.9326 -1.5076 -2.2588
  467SOL    HW3 1867   1.751   1.059   0.513 -0.0209 -0.0858 -0.2505
  467SOL    MW4 1868   1.686   1.112   0.535 -0.1526 -0.2108 -0.3374
  468SOL     OW 1869   4.297   4.083   0.442  0.3257  0.2914  0.0608
  468SOL    HW2 1870   4.384   4.049   0.461  0.5129  1.0114  0.5099
  468SOL    HW3 1871   4.306   4.178   0.447 -0.2741  0.4054 -0.8049
  468SOL    MW4 1872   4.309   4.091   0.445  0.2713  0.4015  0.0058
  469SOL     OW 1873   4.359   1.334   0.694  0.5846  0.1037  0.5190
  469SOL    HW2 1874   4.428   1.282   0.735 -0.9299 -0.1146  2.9380
  469SOL    HW3 1875   4.307   1.271   0.644 -0.0257 -0.3836  1.7494
  469SOL    MW4 1876   4.361   1.319   0.693  0.3042  0.0106  1.0005
  470SOL     OW 1877   2.076   1.978   0.612 -0.1063 -0.3047 -0.6577
  470SOL    HW2 1878   1.988   1.995   0.577  0.3523  1.1517 -1.1317
  470SOL    HW3 1879   2.131   2.043   0.570  1.4915 -2.1347 -1.4967
  470SOL    MW4 1880   2.072   1.989   0.602  0.1650 -0.3540 -0.8309
  471SOL     OW 1881   4.253   2.084   0.785  0.1760  0.3628 -0.1013
  471SOL    HW2 1882   4.180   2.027   0.809 -0.1273  0.8314  0.0888
  471SOL    HW3 1883   4.329   2.043   0.825 -0.0496  0.1060  0.0651
  471SOL    MW4 1884   4.253   2.071   0.793  0.1062  0.3907 -0.0542
  472SOL     OW 1885   2.513   0.012   0.855  0.5826 -0.4982 -0.0962
  472SOL    HW2 1886   2.526  -0.071   0.809  1.9284 -1.3415  1.7583
  472SOL    HW3 1887   2.493  -0.014   0.945 -0.5543  1.1663  0.1534
  472SOL    MW4 1888   2.512  -0.003   0.861  0.6101 -0.3898  0.1814
  473SOL     OW 1889   4.045   2.750   0.887  0.5322 -0.6080  0.2985
  473SOL    HW2 1890   4.022   2.661   0.858  0.1558 -0.0137 -1.2946
  473SOL    HW3 1891   4.133   2.764   0.854 -0.0863  0.2596 -1.0402
  473SOL    MW4 1892   4.053   2.740   0.879  0.4009 -0.4151 -0.0883
  474SOL     OW 1893   0.014   3.533   0.878 -0.3858 -0.2579  0.1557
  474SOL    HW2 1894   0.009   3.441   0.851 -0.0013 -0.6219  1.3271
  474SOL    HW3 1895  -0.060   3.574   0.833  0.1914 -0.8667 -1.4130
  474SOL    MW4 1896   0.004   3.526   0.868 -0.2589 -0.3863  0.1033
  475SOL     OW 1897   0.278   0.446   0.804 -0.2461  0.6231  0.4499
  475SOL    HW2 1898   0.257   0.532   0.840  0.6195  0.8793  0.3404
  475SOL    HW3 1899   0.194   0.399   0.804 -0.6983  1.4284  0.5971
  475SOL    MW4 1900   0.264   0.451   0.809 -0.1916  0.7632  0.4549
  476SOL     OW 1901   0.486   3.904   0.468  0.1805  0.3732 -0.0458
  476SOL    HW2 1902   0.400   3.864   0.461  0.4393 -0.0897 -0.5981
  476SOL    HW3 1903   0.546   3.838   0.433  0.7135  0.8512 -0.0377
  476SOL    MW4 1904   0.483   3.890   0.463  0.2850  0.3752 -0.1176
  477SOL     OW 1905   2.691   3.793   0.419 -0.5065  0.8058 -0.5792
  477SOL    HW2 1906   2.707   3.738   0.496  0.1771  0.6587 -0.8217
  477SOL    HW3 1907   2.602   3.771   0.392 -0.2550 -0.1585 -0.6483
  477SOL    MW4 1908   2.681   3.783   0.426 -0.3831  0.6592 -0.6203
  478SOL     OW 1909   0.011   4.079   0.814  0.2524 -0.3501  0.0587
  478SOL    HW2 1910   0.011   4.172   0.837 -1.3548 -0.2948 -0.1067
  478SOL    HW3 1911   0.094   4.046   0.848  0.9245  1.1827 -0.0315
  478SOL    MW4 1912   0.022   4.087   0.821  0.1290 -0.1405  0.0250
  479SOL     OW 1913   1.489   0.237   0.765  0.2473  0.1826  0.0747
  479SOL    HW2 1914   1.523   0.158   0.808 -0.0684  0.0980  0.1715
  479SOL    HW3 1915   1.406   0.254   0.810  0.0910  0.3005 -0.2607
  479SOL    MW4 1916   1.482   0.229   0.776  0.1850  0.1870  0.0432
  480SOL     OW 1917   4.357   4.354   0.466  0.3161 -0.2449  0.1807
  480SOL    HW2 1918   4.309   4.432   0.438  0.1059 -0.5026 -0.1717
  480SOL    HW3 1919   4.443   4.364   0.425  0.3065 -0.1736  0.1761
  480SOL    MW4 1920   4.362   4.366   0.457  0.2871 -0.2695  0.1336
  481SOL     OW 1921   1.841   4.165   0.519  0.4250  0.1019  0.2738
  481SOL    HW2 1922   1.757   4.211   0.525 -0.2541 -0.7285 -1.9997
  481SOL    HW3 1923   1.906   4.234   0.509 -0.4391  0.6768 -1.7564
  481SOL    MW4 1924   1.838   4.180   0.518  0.2214  0.0682 -0.2940
  482SOL     OW 1925   0.256   4.616   1.066  0.2093  0.4098  0.3401
  482SOL    HW2 1926   0.304   4.690   1.103 -0.7389  1.2398 -0.0678
  482SOL    HW3 1927   0.250   4.635   0.972  0.0586 -0.2408  0.2132
  482SOL    MW4 1928   0.262   4.629   1.058  0.0643  0.4335  0.2696
  483SOL     OW 1929   0.006   0.086   1.222 -0.1139  0.1347 -0.1555
  483SOL    HW2 1930  -0.081   0.051   1.202  0.0656 -0.0382 -0.6354
  483SOL    HW3 1931   0.065   0.039   1.163  0.4942 -0.7906  1.1617
  483SOL    MW4 1932   0.003   0.075   1.211 -0.0100 -0.0102 -0.0450
  484SOL     OW 1933   4.476   0.370   1.109 -0.0478 -0.4230  0.0031
  484SOL    HW2 1934   4.407   0.418   1.154  2.6944  1.2945  2.6280
  484SOL    HW3 1935   4.474   0.283   1.147  0.6902  0.3185  1.8281
  484SOL    MW4 1936   4.467   0.365   1.120  0.4114 -0.0985  0.5902
  485SOL     OW 1937   0.206   0.492   1.223  0.2937  0.8590 -0.0639
  485SOL    HW2 1938   0.193   0.582   1.193 -1.5300  0.5900 -0.1743
  485SOL    HW3 1939   0.125   0.447   1.198  1.0289 -0.7141  0.3373
  485SOL    MW4 1940   0.193   0.498   1.216  0.1501  0.6160 -0.0255
  486SOL     OW 1941   0.218   0.762   1.107  0.4244  0.1212 -0.0238
  486SOL    HW2 1942   0.292   0.822   1.113  0.5399  0.1148 -1.2162
  486SOL    HW3 1943   0.142   0.817   1.127  0.7444  0.1052  1.2931
  486SOL    MW4 1944   0.218   0.778   1.110  0.4819  0.1183 -0.0074
  487SOL     OW 1945   0.006   0.921   1.226  0.1600 -0.1663 -0.0765
  487SOL    HW2 1946   0.014   0.909   1.321 -0.3282 -0.2170 -0.0440
  487SOL    HW3 1947  -0.064   0.862   1.200  1.1026 -1.0448 -0.6518
  487SOL    MW4 1948  -0.002   0.912   1.235  0.2199 -0.2889 -0.1481
  488SOL     OW 1949   4.471   1.166   1.113  0.6263 -0.2030 -0.0514
  488SOL    HW2 1950   4.397   1.207   1.158  1.0067 -0.1857  0.5521
  488SOL    HW3 1951   4.480   1.081   1.155 -0.0245 -0.8342 -1.1543
  488SOL    MW4 1952   4.462   1.160   1.124  0.5906 -0.2840 -0.1173
  489SOL     OW 1953   0.167   1.313   1.246 -0.5006  0.2999  0.3889
  489SOL    HW2 1954   0.242   1.270   1.206  1.7453  1.7713  2.8004
  489SOL    HW3 1955   0.091   1.267   1.212  1.5554 -2.0970 -1.1172
  489SOL    MW4 1956   0.167   1.302   1.236  0.0670  0.1778  0.5084
  490SOL     OW 1957   0.153   1.579   1.165  0.0533 -0.2735 -0.3352
  490SOL    HW2 1958   0.158   1.490   1.200  0.4656 -0.4719 -0.9027
  490SOL    HW3 1959   0.177   1.570   1.073 -1.1989  0.2270 -0.7166
  490SOL    MW4 1960   0.157   1.566   1.157 -0.0575 -0.2336 -0.4604
  491SOL     OW 1961   4.440   1.704   1.280  0.3747 -0.5096  0.2413
  491SOL    HW2 1962   4.446   1.794   1.249 -0.4898 -0.5069  0.0674
  491SOL    HW3 1963   4.517   1.661   1.242 -0.2784 -0.3292 -1.3170
  491SOL    MW4 1964   4.451   1.710   1.271  0.1745 -0.4854  0.0128
  492SOL     OW 1965   4.461   1.950   1.148  0.3263  0.3029  0.2916
  492SOL    HW2 1966   4.379   1.989   1.179  1.3797  2.6718  0.2140
  492SOL    HW3 1967   4.452   1.948   1.053 -0.7574 -2.0658  0.4120
  492SOL    MW4 1968   4.449   1.955   1.140  0.3223  0.3029  0.2973
  493SOL     OW 1969   0.232   2.060   1.223  0.0091 -0.2433  0.4336
  493SOL    HW2 1970   0.225   2.150   1.192 -1.0487 -0.2711  0.5698
  493SOL    HW3 1971   0.142   2.027   1.221  0.6144 -1.9315 -1.5106
  493SOL    MW4 1972   0.220   2.068   1.218 -0.0506 -0.4697  0.1951
  494SOL     OW 1973   0.183   2.326   1.137 -0.1681 -0.2589  0.0485
  494SOL    HW2 1974   0.258   2.365   1.181 -0.3501 -2.1381  2.1375
  494SOL    HW3 1975   0.109   2.381   1.163 -0.0020 -0.3412  0.7218
  494SOL    MW4 1976   0.183   2.339   1.146 -0.1702 -0.5177  0.4130
  495SOL     OW 1977   4.476   2.488   1.260  0.2290 -0.0320 -0.3973
  495SOL    HW2 1978   4.482   2.472   1.354  1.0160 -0.9145 -0.5828
  495SOL    HW3 1979   4.407   2.428   1.230  0.0280  0.1976 -0.3986
  495SOL    MW4 1980   4.468   2.478   1.268  0.3063 -0.1181 -0.4220
  496SOL     OW 1981   4.480   2.703   1.101  0.4125  0.3286  0.5709
  496SOL    HW2 1982   4.397   2.739   1.130  0.0175 -0.4471  0.4092
  496SOL    HW3 1983   4.490   2.621   1.150  1.1210  0.4562  0.6558
  496SOL    MW4 1984   4.471   2.697   1.111  0.4539  0.2431  0.5607
  497SOL     OW 1985   0.206   2.849   1.221  0.2292 -0.3148 -0.2203
  497SOL    HW2 1986   0.187   2.834   1.314 -0.1306 -0.1551 -0.2705
  497SOL    HW3 1987   0.131   2.812   1.175 -0.1177  0.6237 -0.4001
  497SOL    MW4 1988   0.194   2.842   1.227  0.1360 -0.1699 -0.2507
  498SOL     OW 1989   0.239   3.110   1.101 -0.2010 -0.4806 -1.1095
  498SOL    HW2 1990   0.314   3.146   1.147 -1.0179  0.2149 -0.2832
  498SOL    HW3 1991   0.227   3.023   1.139  0.0910 -0.5264 -1.1253
  498SOL    MW4 1992   0.247   3.103   1.112 -0.2703 -0.3949 -1.0026
  499SOL     OW 1993   4.489   3.251   1.227  0.3810 -0.2215 -0.4501
  499SOL    HW2 1994   4.561   3.202   1.187 -0.3325 -1.3821 -0.3431
  499SOL    HW3 1995   4.410   3.207   1.195 -0.2077 -1.3663  2.4151
  499SOL    MW4 1996   4.488   3.239   1.217  0.2092 -0.5257 -0.0580
  500SOL     OW 1997   4.465   3.539   1.158  0.0085 -0.1304  0.2978
  500SOL    HW2 1998   4.468   3.444   1.173 -1.9270 -0.3856 -0.7460
  500SOL    HW3 1999   4.469   3.549   1.063 -0.7533  0.7789  0.3522
  500SOL    MW4 2000   4.466   3.527   1.147 -0.3474 -0.0441  0.1672
  501SOL     OW 2001   0.241   3.620   1.249 -0.0062  0.0635 -0.1557
  501SOL    HW2 2002   0.239   3.611   1.344  0.3556  0.4017 -0.1133
  501SOL    HW3 2003   0.156   3.588   1.220 -0.1387  0.0104  0.2877
  501SOL    MW4 2004   0.229   3.615   1.257  0.0241  0.1011 -0.0916
  502SOL     OW 2005   0.229   3.874   1.143  0.2717 -0.4283  0.1545
  502SOL    HW2 2006   0.151   3.918   1.178  0.7791  0.4375  0.1884
  502SOL    HW3 2007   0.225   3.786   1.181 -0.8553 -0.4937 -0.0858
  502SOL    MW4 2008   0.218   3.868   1.153  0.1900 -0.3227  0.1273
  503SOL     OW 2009   4.482   4.007   1.193 -0.2079 -0.3855  0.1447
  503SOL    HW2 2010   4.476   4.026   1.286 -1.2753  1.5397 -0.2761
  503SOL    HW3 2011   4.400   3.961   1.172 -0.0817 -0.5925  0.1031
  503SOL    MW4 2012   4.470   4.003   1.202 -0.3321 -0.1588  0.0837
  504SOL     OW 2013   4.476   4.270   1.131  0.5077 -0.1146  0.0370
  504SOL    HW2 2014   4.560   4.304   1.163 -0.1180  0.3231  1.2346
  504SOL    HW3 2015   4.484   4.175   1.141  1.7422 -0.2780 -2.0622
  504SOL    MW4 2016   4.488   4.262   1.136  0.5881 -0.0784 -0.0820
  505SOL     OW 2017   0.238   4.379   1.201  0.0152 -0.1403 -0.3021
  505SOL    HW2 2018   0.253   4.400   1.293  0.2241 -0.1772 -0.3284
  505SOL    HW3 2019   0.254   4.461   1.155  1.3761 -0.4847 -0.4643
  505SOL    MW4 2020   0.242   4.393   1.207  0.2223 -0.1906 -0.3270
  506SOL     OW 2021   0.639   0.042   1.119 -0.3693 -0.1255  0.1465
  506SOL    HW2 2022   0.704   0.091   1.170 -0.6270 -0.0034  0.3561
  506SOL    HW3 2023   0.644  -0.047   1.154  0.7922 -0.4848 -0.8933
  506SOL    MW4 2024   0.649   0.036   1.131 -0.2500 -0.1568  0.0370
  507SOL     OW 2025   0.413   0.172   1.191 -0.1831  0.1143  0.0935
  507SOL    HW2 2026   0.415   0.242   1.126 -1.2826 -0.6939 -0.8359
  507SOL    HW3 2027   0.479   0.110   1.161  0.3812  0.4765  0.5921
  507SOL    MW4 2028   0.422   0.173   1.178 -0.2537  0.0555  0.0367
  508SOL     OW 2029   0.419   0.425   1.056 -0.0762  0.0250  0.2924
  508SOL    HW2 2030   0.346   0.467   1.101 -0.5151 -1.5177  1.0467
  508SOL    HW3 2031   0.383   0.398   0.971 -0.3761 -0.6860  0.6424
  508SOL    MW4 2032   0.405   0.427   1.050 -0.1737 -0.2724  0.4381
  509SOL     OW 2033   0.681   0.512   1.199 -0.1460 -0.0636 -0.4232
  509SOL    HW2 2034   0.670   0.595   1.152  0.8214  0.0741 -0.4064
  509SOL    HW3 2035   0.615   0.454   1.160 -0.3883  0.5171 -0.8850
  509SOL    MW4 2036   0.671   0.515   1.188 -0.0503  0.0312 -0.4819
  510SOL     OW 2037   0.644   0.779   1.070  0.0127  0.1763  0.0976
  510SOL    HW2 2038   0.578   0.836   1.110 -1.5248 -2.2738  1.1941
  510SOL    HW3 2039   0.600   0.741   0.993  0.9680  0.4007 -0.5564
  510SOL    MW4 2040   0.629   0.781   1.065 -0.0641 -0.1174  0.1559
  511SOL     OW 2041   0.413   0.939   1.171 -0.5672 -0.1892  0.2463
  511SOL    HW2 2042   0.424   0.930   1.265 -0.9067  1.5090  0.4703
  511SOL    HW3 2043   0.394   1.032   1.158 -1.7927 -0.6343 -1.3629
  511SOL    MW4 2044   0.412   0.950   1.182 -0.7737 -0.0239  0.0635
  512SOL     OW 2045   0.364   1.195   1.121 -0.0775 -0.0005 -0.0333
  512SOL    HW2 2046   0.448   1.239   1.131 -0.2714  0.3222  0.1904
  512SOL    HW3 2047   0.330   1.226   1.037 -0.0377 -0.0299 -0.0609
  512SOL    MW4 2048   0.370   1.205   1.111 -0.0979  0.0382 -0.0074
  513SOL     OW 2049   0.618   1.283   1.232 -0.0887 -0.6920 -0.3106
  513SOL    HW2 2050   0.625   1.373   1.201  0.6123 -0.6702 -0.1016
  513SOL    HW3 2051   0.701   1.242   1.206 -0.5659 -1.3922 -0.7690
  513SOL    MW4 2052   0.630   1.289   1.225 -0.0592 -0.7815 -0.3435
  514SOL     OW 2053   0.654   1.524   1.125 -0.1048  0.0167 -0.3582
  514SOL    HW2 2054   0.723   1.566   1.177  0.2484 -1.6669  0.5780
  514SOL    HW3 2055   0.573   1.564   1.157  0.0131 -1.7075  2.2895
  514SOL    MW4 2056   0.652   1.535   1.136 -0.0427 -0.4329  0.1147
  515SOL     OW 2057   0.424   1.661   1.217 -0.3133 -0.0870 -0.0306
  515SOL    HW2 2058   0.434   1.670   1.311 -0.3185 -0.4632  0.0063
  515SOL    HW3 2059   0.331   1.645   1.204 -0.4324  0.6752 -0.1581
  515SOL    MW4 2060   0.413   1.660   1.227 -0.3297 -0.0361 -0.0426
  516SOL     OW 2061   0.443   1.928   1.109  0.3597 -0.0568  0.1752
  516SOL    HW2 2062   0.433   1.837   1.139  0.6622 -0.1198  0.0878
  516SOL    HW3 2063   0.370   1.974   1.149 -1.0862 -0.7802 -1.5548
  516SOL    MW4 2064   0.432   1.922   1.119  0.2088 -0.1605 -0.0646
  517SOL     OW 2065   0.680   2.072   1.197  0.4224 -0.7182 -0.2348
  517SOL    HW2 2066   0.677   2.068   1.293  0.1556  0.6620 -0.1809
  517SOL    HW3 2067   0.606   2.017   1.170 -2.6342  2.7921  0.4845
  517SOL    MW4 2068   0.670   2.064   1.206 -0.0161 -0.0730 -0.1328
  518SOL     OW 2069   0.646   2.339   1.154 -0.1072  0.7125  0.1508
  518SOL    HW2 2070   0.576   2.365   1.214 -1.4260 -0.5581 -0.7995
  518SOL    HW3 2071   0.661   2.246   1.173  0.5979  0.7119 -0.3762
  518SOL    MW4 2072   0.639   2.330   1.164 -0.1882  0.5448 -0.0441
  519SOL     OW 2073   0.406   2.442   1.255  0.3058  0.2258  0.0166
  519SOL    HW2 2074   0.426   2.456   1.347 -2.3282  0.4549  0.5921
  519SOL    HW3 2075   0.404   2.530   1.217 -2.0100  0.4450  0.5339
  519SOL    MW4 2076   0.408   2.456   1.262 -0.3472  0.2850  0.1608
  520SOL     OW 2077   0.425   2.709   1.126 -0.6216  0.0226 -0.0087
  520SOL    HW2 2078   0.346   2.760   1.140 -0.3877  0.8407 -1.5682
  520SOL    HW3 2079   0.434   2.704   1.031  2.0205  1.2268  0.1357
  520SOL    MW4 2080   0.416   2.715   1.115 -0.2422  0.2894 -0.1954
  521SOL     OW 2081   0.644   2.813   1.262 -0.3201 -0.4268  0.1452
  521SOL    HW2 2082   0.647   2.906   1.236 -0.5485 -0.3193  0.5023
  521SOL    HW3 2083   0.569   2.778   1.214  0.2923 -0.6311 -0.6608
  521SOL    MW4 2084   0.634   2.821   1.252 -0.2694 -0.4395  0.0860
  522SOL     OW 2085   0.732   3.089   1.181  0.6968  0.4511  0.0960
  522SOL    HW2 2086   0.816   3.121   1.212  0.4710  0.3341  0.8452
  522SOL    HW3 2087   0.744   3.076   1.087  1.7386 -0.2575  0.3150
  522SOL    MW4 2088   0.744   3.091   1.173  0.8044  0.3422  0.2238
  523SOL     OW 2089   0.462   3.210   1.240 -0.1128  0.4006 -0.2977
  523SOL    HW2 2090   0.480   3.301   1.216  0.5775  0.7095  1.3375
  523SOL    HW3 2091   0.545   3.165   1.225 -0.0926  0.3019  0.1169
  523SOL    MW4 2092   0.475   3.216   1.235 -0.0191  0.4284 -0.0273
  524SOL     OW 2093   0.456   3.474   1.149 -0.4258  0.2731 -0.0146
  524SOL    HW2 2094   0.530   3.533   1.166 -0.4874  0.7063 -1.1764
  524SOL    HW3 2095   0.380   3.518   1.187 -0.2020  0.1305  0.6120
  524SOL    MW4 2096   0.456   3.488   1.156 -0.4044  0.3115 -0.0852
  525SOL     OW 2097   0.676   3.621   1.222 -0.0493  0.3384  0.4402
  525SOL    HW2 2098   0.667   3.599   1.314  0.8725  0.0020  0.4587
  525SOL    HW3 2099   0.683   3.717   1.220  1.8104  0.2279  0.9005
  525SOL    MW4 2100   0.676   3.631   1.234  0.3176  0.2794  0.5034
  526SOL     OW 2101   0.704   3.877   1.129 -0.3415  0.0721 -0.4518
  526SOL    HW2 2102   0.614   3.903   1.150 -0.4006 -0.3977 -0.1010
  526SOL    HW3 2103   0.710   3.884   1.034 -1.2413 -1.4028 -0.6451
  526SOL    MW4 2104   0.693   3.881   1.119 -0.4680 -0.1845 -0.4310
  527SOL     OW 2105   0.460   3.978   1.254 -0.0364  0.5915 -0.4017
  527SOL    HW2 2106   0.454   4.071   1.231 -2.1946  0.5813 -0.0154
  527SOL    HW3 2107   0.378   3.940   1.222 -0.6726 -0.5052  2.3676
  527SOL    MW4 2108   0.448   3.985   1.247 -0.4051  0.4454  0.0146
  528SOL     OW 2109   0.438   4.290   0.872  0.0117 -0.3451 -0.4633
  528SOL    HW2 2110   0.452   4.200   0.842 -1.3891 -0.7264 -0.0302
  528SOL    HW3 2111   0.430   4.282   0.967 -0.9736  0.1005 -0.4986
  528SOL    MW4 2112   0.439   4.277   0.881 -0.3031 -0.3366 -0.4108
  529SOL     OW 2113   0.453   4.236   1.146  0.4118 -0.2154 -0.2147
  529SOL    HW2 2114   0.522   4.301   1.161  0.0225  0.1294  0.1078
  529SOL    HW3 2115   0.376   4.273   1.189 -0.4756  0.2999 -2.2295
  529SOL    MW4 2116   0.452   4.249   1.154  0.2434 -0.1019 -0.4380
  530SOL     OW 2117   1.117   0.029   1.141  0.0729  0.1117  0.1196
  530SOL    HW2 2118   1.097  -0.055   1.182 -0.6912  0.2270 -0.0165
  530SOL    HW3 2119   1.089   0.018   1.050  0.7267  0.2415 -0.1032
  530SOL    MW4 2120   1.111   0.016   1.135  0.0583  0.1440  0.0723
  531SOL     OW 2121   0.880   0.141   1.242  0.1612 -0.1714  0.5953
  531SOL    HW2 2122   0.885   0.131   1.337  1.3584  1.1711  0.7003
  531SOL    HW3 2123   0.964   0.108   1.210  0.0867  0.1288  0.0792
  531SOL    MW4 2124   0.892   0.135   1.250  0.3094  0.0454  0.5411
  532SOL     OW 2125   0.918   0.382   1.099  0.1082  0.2362 -0.7493
  532SOL    HW2 2126   0.912   0.289   1.121 -0.5066 -0.0150 -1.9702
  532SOL    HW3 2127   0.837   0.420   1.133 -0.0049  0.1859 -0.9661
  532SOL    MW4 2128   0.907   0.375   1.107  0.0122  0.1965 -0.9390
  533SOL     OW 2129   1.122   0.466   1.254  0.0019 -0.5617 -0.2293
  533SOL    HW2 2130   1.104   0.452   1.347 -0.6756 -1.5976 -0.5048
  533SOL    HW3 2131   1.042   0.437   1.210  0.5526 -0.6611 -1.1757
  533SOL    MW4 2132   1.109   0.460   1.261 -0.0148 -0.7115 -0.3905
  534SOL     OW 2133   1.128   0.751   1.161 -0.6589  0.5786 -0.0623
  534SOL    HW2 2134   1.036   0.777   1.170 -1.1523 -1.4605  1.0090
  534SOL    HW3 2135   1.128   0.657   1.180  1.9296  0.9360  1.9473
  534SOL    MW4 2136   1.116   0.742   1.165 -0.3825  0.3567  0.3442
  535SOL     OW 2137   0.863   0.865   1.200  0.3705 -0.1506 -0.2474
  535SOL    HW2 2138   0.853   0.958   1.182  0.5711  0.0082  0.4531
  535SOL    HW3 2139   0.785   0.825   1.161 -1.0042  0.6050  1.6211
  535SOL    MW4 2140   0.851   0.872   1.192  0.2156 -0.0299  0.0916
  536SOL     OW 2141   0.831   1.141   1.132 -0.1975 -0.2594  0.1029
  536SOL    HW2 2142   0.919   1.172   1.150 -0.8421  1.4200  0.3875
  536SOL    HW3 2143   0.829   1.127   1.037  0.3300 -0.2260  0.0860
  536SOL    MW4 2144   0.842   1.143   1.122 -0.2130 -0.0334  0.1382
  537SOL     OW 2145   1.091   1.266   1.196  0.1256 -0.1603 -0.0378
  537SOL    HW2 2146   1.100   1.277   1.291 -0.8602 -0.7880  0.1292
  537SOL    HW3 2147   1.172   1.222   1.170 -0.5823 -2.0402  0.8574
  537SOL    MW4 2148   1.103   1.262   1.205 -0.0978 -0.4912  0.1023
  538SOL     OW 2149   1.104   1.520   1.099 -0.1198 -0.2812 -0.5239
  538SOL    HW2 2150   1.095   1.428   1.123  1.5132 -0.6668 -1.2910
  538SOL    HW3 2151   1.140   1.519   1.010  1.4735  1.0687  0.0644
  538SOL    MW4 2152   1.107   1.508   1.091  0.3059 -0.1539 -0.5475
  539SOL     OW 2153   0.868   1.650   1.232  0.5900 -0.4066  0.3245
  539SOL    HW2 2154   0.859   1.741   1.202 -0.3496 -0.4078  0.6115
  539SOL    HW3 2155   0.937   1.614   1.175  0.1024  0.1247 -0.6214
  539SOL    MW4 2156   0.876   1.657   1.220  0.4017 -0.3367  0.2376
  540SOL     OW 2157   0.896   1.916   1.140  0.5776  0.4085 -0.4925
  540SOL    HW2 2158   0.966   1.942   1.200 -0.3807 -0.0448  0.8492
  540SOL    HW3 2159   0.821   1.969   1.167 -0.3191 -0.9909 -0.2090
  540SOL    MW4 2160   0.895   1.926   1.151  0.3329  0.1641 -0.2780
  541SOL     OW 2161   1.153   2.024   1.266 -0.3694 -0.2077 -0.3960
  541SOL    HW2 2162   1.139   2.023   1.360  0.4557 -1.7942 -0.2907
  541SOL    HW3 2163   1.124   2.111   1.239  0.2732  0.5892  1.4413
  541SOL    MW4 2164   1.147   2.035   1.275 -0.1758 -0.3119 -0.1397
  542SOL     OW 2165   1.129   2.275   1.144 -0.5344 -0.7570  0.2568
  542SOL    HW2 2166   1.203   2.318   1.186  0.1350 -1.3356 -0.3053
  542SOL    HW3 2167   1.053   2.329   1.166 -0.0575 -0.5720  1.4556
  542SOL    MW4 2168   1.128   2.288   1.153 -0.3831 -0.8089  0.3408
  543SOL     OW 2169   0.909   2.408   1.236 -0.3805  0.1567 -0.2079
  543SOL    HW2 2170   0.920   2.427   1.329 -0.6441  0.2584 -0.1967
  543SOL    HW3 2171   0.817   2.381   1.228 -0.3926  0.2698 -0.4566
  543SOL    MW4 2172   0.898   2.407   1.247 -0.4169  0.1851 -0.2392
  544SOL     OW 2173   0.884   2.694   1.170  0.7182 -0.3764 -0.1561
  544SOL    HW2 2174   0.881   2.601   1.190  0.8522  0.2774  3.0381
  544SOL    HW3 2175   0.797   2.727   1.195  0.5753  0.3576 -1.5045
  544SOL    MW4 2176   0.872   2.686   1.176  0.7170 -0.1933  0.0874
  545SOL     OW 2177   1.105   2.865   1.205  0.3210  0.2706 -0.0866
  545SOL    HW2 2178   1.120   2.860   1.300  0.3329  1.8465  0.0050
  545SOL    HW3 2179   1.027   2.812   1.190  0.7736 -0.6232  0.6985
  545SOL    MW4 2180   1.097   2.857   1.216  0.3823  0.3606  0.0290
  546SOL     OW 2181   1.177   3.111   1.105 -0.5384 -0.0701 -0.0227
  546SOL    HW2 2182   1.162   3.099   1.011 -0.8757 -0.6421  0.1003
  546SOL    HW3 2183   1.170   3.023   1.141  0.9210 -0.0432  0.3614
  546SOL    MW4 2184   1.174   3.098   1.097 -0.3904 -0.1420  0.0442
  547SOL     OW 2185   0.975   3.257   1.225  0.2924  0.2512 -0.0088
  547SOL    HW2 2186   0.965   3.332   1.165 -1.6221 -0.6487 -0.8598
  547SOL    HW3 2187   1.049   3.208   1.189 -0.4057  0.0875 -1.2664
  547SOL    MW4 2188   0.983   3.261   1.212 -0.0523  0.1109 -0.2870
  548SOL     OW 2189   0.905   3.499   1.098  0.1889 -0.3382  0.1126
  548SOL    HW2 2190   0.831   3.538   1.145 -0.2433 -0.9650 -0.0395
  548SOL    HW3 2191   0.881   3.504   1.006  0.6412  0.0815  0.0194
  548SOL    MW4 2192   0.892   3.505   1.092  0.1915 -0.3655  0.0802
  549SOL     OW 2193   1.112   3.641   1.197  0.1774 -0.3648 -0.1371
  549SOL    HW2 2194   1.184   3.592   1.156 -0.3008 -0.1983 -1.2067
  549SOL    HW3 2195   1.033   3.598   1.164 -0.2201 -0.6588  1.1767
  549SOL    MW4 2196   1.111   3.629   1.187  0.0619 -0.3816 -0.1049
  550SOL     OW 2197   1.116   3.908   1.068  0.0901  0.0081 -0.1527
  550SOL    HW2 2198   1.059   3.972   1.110 -0.4715  0.2616 -1.2916
  550SOL    HW3 2199   1.095   3.825   1.112  0.2355  0.4437  0.7554
  550SOL    MW4 2200   1.106   3.905   1.080  0.0352  0.0990 -0.1831
  551SOL     OW 2201   0.915   4.033   1.211 -0.0490  0.2677 -0.1296
  551SOL    HW2 2202   0.926   4.029   1.306  0.9516  0.0917 -0.2383
  551SOL    HW3 2203   0.831   3.991   1.194 -1.5206  2.7360  0.9041
  551SOL    MW4 2204   0.906   4.027   1.221 -0.1112  0.5701 -0.0076
  552SOL     OW 2205   0.661   4.455   1.230 -0.0059  0.1926  0.3383
  552SOL    HW2 2206   0.729   4.404   1.186  0.1140  0.6057  0.0473
  552SOL    HW3 2207   0.667   4.429   1.322  0.4374  0.1140  0.2855
  552SOL    MW4 2208   0.671   4.445   1.237  0.0684  0.2368  0.2929
  553SOL     OW 2209   1.106   4.452   1.235 -0.0137  0.1411  0.3968
  553SOL    HW2 2210   1.103   4.424   1.326  0.6816 -2.2464 -0.2811
  553SOL    HW3 2211   1.036   4.403   1.192 -0.0722  0.9405 -0.4486
  553SOL    MW4 2212   1.097   4.442   1.241  0.0703 -0.0684  0.1958
  554SOL     OW 2213   1.599   4.633   1.148  0.2959  0.2487  0.2161
  554SOL    HW2 2214   1.672   4.671   1.196 -0.9135  1.7823  0.8700
  554SOL    HW3 2215   1.586   4.547   1.187  1.7581 -0.0397  0.0828
  554SOL    MW4 2216   1.607   4.627   1.159  0.3292  0.4130  0.2848
  555SOL     OW 2217   1.376   0.081   1.244 -0.1023 -0.1432  0.1412
  555SOL    HW2 2218   1.449   0.034   1.203 -0.4005 -0.3025 -0.2065
  555SOL    HW3 2219   1.300   0.057   1.191 -0.5588 -0.6670  1.0317
  555SOL    MW4 2220   1.376   0.072   1.232 -0.2018 -0.2334  0.2128
  556SOL     OW 2221   1.340   0.337   1.152 -0.0904  0.3462 -0.2533
  556SOL    HW2 2222   1.348   0.246   1.182 -1.8461 -0.0619 -1.0026
  556SOL    HW3 2223   1.262   0.369   1.195  0.4682  1.4871 -0.0829
  556SOL    MW4 2224   1.331   0.329   1.162 -0.2483  0.4429 -0.3297
  557SOL     OW 2225   1.587   0.435   1.221  0.0900 -0.1444 -0.0068
  557SOL    HW2 2226   1.590   0.516   1.170  0.4551  0.3581  0.8069
  557SOL    HW3 2227   1.498   0.402   1.209 -0.1942  0.6141  0.0319
  557SOL    MW4 2228   1.576   0.441   1.212  0.1007  0.0220  0.1056
  558SOL     OW 2229   1.609   0.700   1.118 -1.0779  0.0548  0.0195
  558SOL    HW2 2230   1.679   0.739   1.172 -1.1737  1.5555 -0.9283
  558SOL    HW3 2231   1.640   0.709   1.028 -2.3493  0.4114 -0.3884
  558SOL    MW4 2232   1.623   0.706   1.113 -1.2583  0.2998 -0.1594
  559SOL     OW 2233   1.386   0.858   1.218  0.4154 -0.4454  0.2788
  559SOL    HW2 2234   1.447   0.790   1.189  0.0312 -0.6677 -0.0126
  559SOL    HW3 2235   1.300   0.819   1.207  0.1969  0.0541  0.2002
  559SOL    MW4 2236   1.383   0.844   1.213  0.3359 -0.4088  0.2299
  560SOL     OW 2237   1.315   1.115   1.135 -0.4153 -0.4254 -0.4396
  560SOL    HW2 2238   1.348   1.035   1.176 -1.4404 -0.6588 -0.0690
  560SOL    HW3 2239   1.347   1.110   1.045 -1.7915 -2.0484 -0.8767
  560SOL    MW4 2240   1.324   1.103   1.128 -0.7322 -0.6703 -0.4484
  561SOL     OW 2241   1.548   1.277   1.206 -0.0118  0.0116 -0.1475
  561SOL    HW2 2242   1.626   1.222   1.202 -0.4860 -0.6346 -0.4019
  561SOL    HW3 2243   1.479   1.226   1.164 -0.7398  0.3020  0.6601
  561SOL    MW4 2244   1.549   1.263   1.200 -0.1704 -0.0353 -0.0745
  562SOL     OW 2245   1.573   1.544   1.101  0.2776  0.3451  0.4182
  562SOL    HW2 2246   1.639   1.594   1.150  1.3754  0.3663 -1.0602
  562SOL    HW3 2247   1.584   1.454   1.131  0.3044  0.5056  0.9030
  562SOL    MW4 2248   1.583   1.539   1.111  0.4259  0.3691  0.2871
  563SOL     OW 2249   1.337   1.636   1.209 -0.2121 -0.5055  0.4930
  563SOL    HW2 2250   1.415   1.582   1.194 -1.3545 -2.3678  1.1066
  563SOL    HW3 2251   1.264   1.582   1.177 -1.1287  1.8302 -1.5493
  563SOL    MW4 2252   1.337   1.622   1.202 -0.4838 -0.4430  0.3045
  564SOL     OW 2253   1.368   1.904   1.118  0.4463  0.1440  0.0924
  564SOL    HW2 2254   1.364   1.808   1.125 -0.7561 -0.0820 -2.8219
  564SOL    HW3 2255   1.293   1.935   1.168 -1.2213 -0.6890 -1.7949
  564SOL    MW4 2256   1.358   1.895   1.125  0.0676  0.0043 -0.5411
  565SOL     OW 2257   1.567   2.088   1.224  0.2205 -0.2339 -0.2022
  565SOL    HW2 2258   1.549   2.162   1.167  0.0379 -0.2227 -0.1279
  565SOL    HW3 2259   1.500   2.024   1.203 -1.1200  0.5761  1.4621
  565SOL    MW4 2260   1.556   2.089   1.214  0.0195 -0.1256  0.0272
  566SOL     OW 2261   1.515   2.323   1.078 -0.1191  0.1516  0.1812
  566SOL    HW2 2262   1.458   2.356   1.148 -0.3997 -0.0703  0.0560
  566SOL    HW3 2263   1.477   2.358   0.997  0.2688  0.4998  0.1467
  566SOL    MW4 2264   1.502   2.332   1.076 -0.1049  0.1682  0.1601
  567SOL     OW 2265   1.342   2.411   1.263 -0.1903 -0.3616  0.4199
  567SOL    HW2 2266   1.353   2.409   1.358 -1.6828  0.0739  0.6031
  567SOL    HW3 2267   1.338   2.505   1.242  2.3427 -0.3834 -0.3424
  567SOL    MW4 2268   1.343   2.423   1.273 -0.0530 -0.3070  0.3435
  568SOL     OW 2269   1.306   2.670   1.172 -0.2327 -0.0254  0.7537
  568SOL    HW2 2270   1.388   2.717   1.189  0.0099 -0.3319  0.4702
  568SOL    HW3 2271   1.237   2.735   1.183  0.0212  0.1304  1.4328
  568SOL    MW4 2272   1.308   2.685   1.175 -0.1672 -0.0453  0.8059
  569SOL     OW 2273   1.546   2.818   1.245 -0.3896  0.5249 -0.2953
  569SOL    HW2 2274   1.623   2.772   1.211 -1.6864  0.0434 -2.7008
  569SOL    HW3 2275   1.552   2.906   1.208 -1.7504  0.0332 -1.7451
  569SOL    MW4 2276   1.557   2.823   1.235 -0.7402  0.3965 -0.8039
  570SOL     OW 2277   1.588   3.082   1.187  0.0382 -0.8403  0.0692
  570SOL    HW2 2278   1.673   3.114   1.217  0.4482  0.2851 -2.1172
  570SOL    HW3 2279   1.526   3.148   1.218 -0.0728 -1.7327  1.7829
  570SOL    MW4 2280   1.591   3.095   1.195  0.0777 -0.8095  0.0068
  571SOL     OW 2281   1.385   3.266   1.228  0.0838  0.3503 -0.2954
  571SOL    HW2 2282   1.369   3.260   1.322 -0.1338 -0.1033 -0.3595
  571SOL    HW3 2283   1.315   3.216   1.188 -0.6115  1.6859 -0.7798
  571SOL    MW4 2284   1.374   3.259   1.235 -0.0366  0.4667 -0.3678
  572SOL     OW 2285   1.341   3.507   1.110 -0.1657  0.0175 -0.2287
  572SOL    HW2 2286   1.347   3.419   1.147 -1.2007  0.0149 -0.0595
  572SOL    HW3 2287   1.350   3.493   1.015  0.6978 -0.1548 -0.1307
  572SOL    MW4 2288   1.343   3.493   1.102 -0.1883 -0.0056 -0.1934
  573SOL     OW 2289   1.583   3.589   1.215  0.6148  0.2438 -0.7525
  573SOL    HW2 2290   1.589   3.679   1.184  0.9750  1.0529  1.5647
  573SOL    HW3 2291   1.502   3.556   1.178 -0.7922  2.3401  0.3458
  573SOL    MW4 2292   1.573   3.597   1.206  0.4767  0.6271 -0.3019
  574SOL     OW 2293   1.589   3.873   1.133 -0.0798  0.2573 -0.1505
  574SOL    HW2 2294   1.497   3.896   1.149  0.2642  1.7692 -0.2890
  574SOL    HW3 2295   1.599   3.880   1.038 -0.1184 -1.0626 -0.2528
  574SOL    MW4 2296   1.578   3.877   1.123 -0.0395  0.2826 -0.1823
  575SOL     OW 2297   1.339   4.011   1.187  0.1010 -0.7976 -0.4441
  575SOL    HW2 2298   1.260   3.976   1.147 -1.1009 -1.0361  2.0970
  575SOL    HW3 2299   1.331   4.106   1.176 -0.9585 -0.7632  0.5559
  575SOL    MW4 2300   1.328   4.019   1.180 -0.1974 -0.8245  0.0231
  576SOL     OW 2301   1.322   4.287   1.156 -0.0714 -0.2283 -0.4317
  576SOL    HW2 2302   1.252   4.344   1.187  1.2905  1.5121 -0.4784
  576SOL    HW3 2303   1.319   4.296   1.060 -1.3992 -2.1293 -0.5910
  576SOL    MW4 2304   1.312   4.296   1.147 -0.0669 -0.2495 -0.4589
  577SOL     OW 2305   1.571   4.358   1.243  0.1331  0.6400 -0.3766
  577SOL    HW2 2306   1.557   4.370   1.337 -0.1071 -1.3647 -0.1286
  577SOL    HW3 2307   1.483   4.344   1.207  0.4134 -0.8730 -0.5281
  577SOL    MW4 2308   1.557   4.358   1.251  0.1384  0.1759 -0.3639
  578SOL     OW 2309   2.064   4.655   1.152 -0.3509  0.0586  0.2371
  578SOL    HW2 2310   2.068   4.567   1.188 -1.0302  0.0812  0.3812
  578SOL    HW3 2311   2.081   4.643   1.058  0.7359 -0.0791  0.4514
  578SOL    MW4 2312   2.067   4.642   1.144 -0.2971  0.0435  0.2844
  579SOL     OW 2313   1.826   0.092   1.254 -0.1365 -0.2309 -0.2721
  579SOL    HW2 2314   1.835   0.172   1.202  1.1526 -0.4102 -0.3510
  579SOL    HW3 2315   1.900   0.038   1.227 -0.4990 -1.0824  0.4267
  579SOL    MW4 2316   1.837   0.096   1.244 -0.0143 -0.3669 -0.1903
  580SOL     OW 2317   1.819   0.317   1.110  0.1110  0.3861  0.4761
  580SOL    HW2 2318   1.744   0.360   1.149  1.3617  2.2829  0.8424
  580SOL    HW3 2319   1.816   0.341   1.018  1.2144  1.9011  0.8170
  580SOL    MW4 2320   1.809   0.326   1.103  0.4216  0.8362  0.5694
  581SOL     OW 2321   1.999   0.491   1.223 -0.2333  0.4139  0.1659
  581SOL    HW2 2322   2.002   0.472   1.317  0.9695  0.8107  0.2033
  581SOL    HW3 2323   1.934   0.429   1.189  1.5881 -1.8846  0.7521
  581SOL    MW4 2324   1.990   0.480   1.231  0.1657  0.1630  0.2482
  582SOL     OW 2325   1.813   0.878   1.243  0.2885  0.6567  1.0943
  582SOL    HW2 2326   1.806   0.852   1.335 -1.1346 -0.5167  0.6732
  582SOL    HW3 2327   1.897   0.840   1.214  0.0029 -0.3119  1.4988
  582SOL    MW4 2328   1.823   0.869   1.251  0.0631  0.3741  1.0921
  583SOL     OW 2329   1.802   1.144   1.182  0.3246  0.5684  0.2009
  583SOL    HW2 2330   1.813   1.062   1.231 -0.7972  0.5359  0.4188
  583SOL    HW3 2331   1.816   1.119   1.091 -0.9929 -0.0858  0.1604
  583SOL    MW4 2332   1.805   1.130   1.176  0.0028  0.4778  0.2243
  584SOL     OW 2333   1.881   0.877   0.779  0.0096 -0.1346 -0.3670
  584SOL    HW2 2334   1.864   0.902   0.688 -0.2492  1.2706  0.0668
  584SOL    HW3 2335   1.805   0.823   0.803  0.0214 -0.4144 -0.9407
  584SOL    MW4 2336   1.868   0.873   0.770 -0.0230  0.0139 -0.3854
  585SOL     OW 2337   2.004   1.321   1.201  0.0993  0.3556 -0.0523
  585SOL    HW2 2338   2.085   1.273   1.185  0.1213  0.0613  0.8951
  585SOL    HW3 2339   1.936   1.254   1.208 -0.2378  0.6048 -0.8958
  585SOL    MW4 2340   2.006   1.306   1.200  0.0577  0.3497 -0.0386
  586SOL     OW 2341   2.022   1.591   1.140  0.1953 -0.2044  0.1352
  586SOL    HW2 2342   2.010   1.498   1.158  0.9042  0.0620  2.1119
  586SOL    HW3 2343   2.033   1.595   1.045 -0.8577 -2.0102 -0.0920
  586SOL    MW4 2344   2.022   1.579   1.130  0.1499 -0.4075  0.3660
  587SOL     OW 2345   1.775   1.685   1.229  0.3996 -0.7056  0.0587
  587SOL    HW2 2346   1.767   1.773   1.192 -0.4500 -1.2858 -1.1894
  587SOL    HW3 2347   1.865   1.659   1.210  0.0430 -0.9027 -1.4240
  587SOL    MW4 2348   1.786   1.693   1.221  0.2405 -0.8082 -0.3016
  588SOL     OW 2349   1.791   1.942   1.134 -0.1748 -0.3373 -0.1044
  588SOL    HW2 2350   1.715   1.997   1.153  0.6925  1.0690 -0.5882
  588SOL    HW3 2351   1.805   1.954   1.040  1.3824  0.3822  0.2123
  588SOL    MW4 2352   1.783   1.951   1.124  0.1451 -0.0569 -0.1265
  589SOL     OW 2353   2.009   2.069   1.210 -0.2585  0.3342  0.3224
  589SOL    HW2 2354   2.013   2.066   1.305  0.4326 -2.0486  0.2601
  589SOL    HW3 2355   1.934   2.015   1.187 -0.9678  1.6233 -0.4871
  589SOL    MW4 2356   2.000   2.062   1.219 -0.2609  0.1899  0.2073
  590SOL     OW 2357   1.950   2.323   1.117 -0.5959 -0.0539  0.1783
  590SOL    HW2 2358   2.021   2.369   1.160 -0.7785  0.4918 -0.1013
  590SOL    HW3 2359   1.956   2.233   1.150  0.4205 -0.0864 -0.1019
  590SOL    MW4 2360   1.960   2.317   1.127 -0.4859  0.0138  0.1044
  591SOL     OW 2361   1.726   2.430   1.232 -0.3562  0.2034 -0.2231
  591SOL    HW2 2362   1.806   2.387   1.201 -0.4503 -2.0397  2.3996
  591SOL    HW3 2363   1.656   2.390   1.180 -0.0003  0.4599 -0.9044
  591SOL    MW4 2364   1.727   2.419   1.221 -0.3217 -0.0587  0.0330
  592SOL     OW 2365   1.769   2.686   1.147  0.3248 -0.0147  0.1267
  592SOL    HW2 2366   1.748   2.596   1.171  1.1221 -0.5649 -1.2170
  592SOL    HW3 2367   1.754   2.690   1.053  2.6571  0.5786 -0.2446
  592SOL    MW4 2368   1.764   2.675   1.138  0.7377 -0.0090 -0.0996
  593SOL     OW 2369   1.999   2.792   1.241 -0.3438  0.0857 -0.2375
  593SOL    HW2 2370   2.004   2.884   1.214 -0.4767  0.2820  0.4040
  593SOL    HW3 2371   1.916   2.761   1.204 -0.4214  0.2950 -0.2387
  593SOL    MW4 2372   1.988   2.800   1.232 -0.3716  0.1392 -0.1530
  594SOL     OW 2373   2.066   3.055   1.169  0.1504 -0.3488  0.5101
  594SOL    HW2 2374   1.981   3.095   1.185 -0.1949 -0.3012 -1.2887
  594SOL    HW3 2375   2.096   3.095   1.088  0.1981 -3.0434 -0.8564
  594SOL    MW4 2376   2.059   3.065   1.160  0.1111 -0.6980  0.0925
  595SOL     OW 2377   1.839   3.194   1.237 -0.3488  0.2242  0.0582
  595SOL    HW2 2378   1.825   3.194   1.332  1.5415 -0.8654  0.3746
  595SOL    HW3 2379   1.832   3.285   1.211  0.7011  0.7477  1.5206
  595SOL    MW4 2380   1.836   3.206   1.246  0.0391  0.1495  0.2929
  596SOL     OW 2381   1.801   3.442   1.131 -0.2399  0.3090 -0.2093
  596SOL    HW2 2382   1.865   3.506   1.161 -1.6386  0.7215  2.0649
  596SOL    HW3 2383   1.716   3.482   1.149 -1.1339 -1.6246  0.0764
  596SOL    MW4 2384   1.799   3.456   1.137 -0.5424  0.1083  0.1284
  597SOL     OW 2385   1.998   3.623   1.235  0.1763  0.2333 -0.0466
  597SOL    HW2 2386   1.998   3.639   1.329 -0.6092  0.2494 -0.0449
  597SOL    HW3 2387   2.074   3.567   1.220 -1.2121 -2.0304  1.0014
  597SOL    MW4 2388   2.008   3.618   1.245 -0.1105 -0.0632  0.0919
  598SOL     OW 2389   2.032   3.882   1.138  0.2801  0.2199  0.0992
  598SOL    HW2 2390   1.951   3.930   1.153 -0.2167 -0.4855 -0.2729
  598SOL    HW3 2391   2.013   3.793   1.166  1.2876  0.3013  1.0557
  598SOL    MW4 2392   2.019   3.876   1.143  0.3475  0.1376  0.1763
  599SOL     OW 2393   1.818   4.022   1.218 -0.2263 -0.0862 -0.3987
  599SOL    HW2 2394   1.812   4.022   1.313  0.2778  1.0021 -0.3504
  599SOL    HW3 2395   1.732   3.994   1.188  0.0791 -1.8716  0.3861
  599SOL    MW4 2396   1.806   4.018   1.227 -0.1195 -0.1782 -0.2888
  600SOL     OW 2397   1.823   4.311   1.151  0.7667  0.1599  0.4175
  600SOL    HW2 2398   1.839   4.217   1.161  1.0665  0.3764  2.3263
  600SOL    HW3 2399   1.733   4.323   1.182 -0.8840 -0.0877 -3.9390
  600SOL    MW4 2400   1.813   4.300   1.157  0.5884  0.1558  0.0946
  601SOL     OW 2401   2.065   4.398   1.250 -0.0014  0.0297 -0.1595
  601SOL    HW2 2402   2.054   4.397   1.345  0.5221 -0.4994 -0.0990
  601SOL    HW3 2403   1.980   4.372   1.215 -0.7004  1.8861  0.1125
  601SOL    MW4 2404   2.053   4.394   1.258 -0.0246  0.2048 -0.1156
  602SOL     OW 2405   2.518   4.655   1.143  0.3125 -0.2754 -0.7123
  602SOL    HW2 2406   2.590   4.698   1.189 -0.9471 -0.1164  1.1795
  602SOL    HW3 2407   2.443   4.712   1.159 -0.4395 -0.9327 -1.8621
  602SOL    MW4 2408   2.518   4.669   1.151  0.0471 -0.3412 -0.6144
  603SOL     OW 2409   2.279   0.140   1.211 -0.0840  0.4624 -0.0444
  603SOL    HW2 2410   2.277   0.226   1.168 -0.2515  1.4948  1.9978
  603SOL    HW3 2411   2.205   0.093   1.173 -0.6053  1.5713 -0.4422
  603SOL    MW4 2412   2.269   0.145   1.200 -0.1749  0.7449  0.1726
  604SOL     OW 2413   2.249   0.396   1.104  0.0754  0.3809 -0.1001
  604SOL    HW2 2414   2.165   0.433   1.128 -0.6092 -1.9988  1.2957
  604SOL    HW3 2415   2.248   0.393   1.008 -1.7253 -0.2714 -0.0775
  604SOL    MW4 2416   2.238   0.401   1.094 -0.2525 -0.0192  0.0870
  605SOL     OW 2417   2.480   0.500   1.192 -0.3639 -0.1219  0.5233
  605SOL    HW2 2418   2.456   0.524   1.281 -0.8375  0.4113  0.2544
  605SOL    HW3 2419   2.398   0.473   1.151 -0.2249  0.0641  0.1126
  605SOL    MW4 2420   2.466   0.500   1.198 -0.4080 -0.0270  0.4336
  606SOL     OW 2421   2.510   0.773   1.082 -0.1608 -0.2644 -0.4977
  606SOL    HW2 2422   2.495   0.679   1.093  0.4850 -0.4599 -1.2519
  606SOL    HW3 2423   2.544   0.782   0.993  0.2284  0.6295 -0.2692
  606SOL    MW4 2424   2.513   0.762   1.072 -0.0243 -0.1722 -0.5670
  607SOL     OW 2425   2.293   0.889   1.238 -0.3278  0.1909 -0.2188
  607SOL    HW2 2426   2.356   0.868   1.168 -0.2560 -1.3984  0.3023
  607SOL    HW3 2427   2.210   0.851   1.208 -0.6649  0.8790 -0.1618
  607SOL    MW4 2428   2.290   0.881   1.224 -0.3628  0.0720 -0.1425
  608SOL     OW 2429   2.234   1.162   1.173 -0.0301 -0.0275 -0.3045
  608SOL    HW2 2430   2.316   1.203   1.201 -0.7387  1.3342 -0.1434
  608SOL    HW3 2431   2.238   1.073   1.208  1.3624  0.0287 -0.2804
  608SOL    MW4 2432   2.246   1.156   1.182  0.0601  0.1596 -0.2801
  609SOL     OW 2433   2.474   1.270   1.244  0.2980  0.0928 -0.4033
  609SOL    HW2 2434   2.560   1.237   1.220  1.5023  1.6001  1.6627
  609SOL    HW3 2435   2.472   1.359   1.209 -0.4135  0.0620 -0.4415
  609SOL    MW4 2436   2.485   1.278   1.237  0.3630  0.2876 -0.1358
  610SOL     OW 2437   2.460   1.520   1.141 -0.2412 -0.2644  0.0045
  610SOL    HW2 2438   2.395   1.584   1.168  0.5500  0.4358  0.2868
  610SOL    HW3 2439   2.467   1.531   1.046 -0.0700  0.0953  0.0613
  610SOL    MW4 2440   2.453   1.530   1.132 -0.1142 -0.1245  0.0493
  611SOL     OW 2441   2.257   1.683   1.210 -0.6512 -0.5013  0.2300
  611SOL    HW2 2442   2.248   1.774   1.184  2.7559 -0.5457 -1.4523
  611SOL    HW3 2443   2.176   1.641   1.182 -2.4586  2.0938  1.4768
  611SOL    MW4 2444   2.245   1.689   1.203 -0.4401 -0.1648  0.1726
  612SOL     OW 2445   2.246   1.952   1.131 -0.1183 -0.4239  0.1738
  612SOL    HW2 2446   2.168   2.002   1.153 -0.0064 -0.7445  1.3240
  612SOL    HW3 2447   2.244   1.945   1.035 -0.9869  0.3794  0.1280
  612SOL    MW4 2448   2.236   1.958   1.121 -0.2182 -0.3602  0.3195
  613SOL     OW 2449   2.469   2.058   1.224 -0.7652 -0.0485  0.6760
  613SOL    HW2 2450   2.536   2.007   1.179 -0.0162  1.6725 -0.1955
  613SOL    HW3 2451   2.387   2.033   1.180 -0.1555  0.9418 -1.0832
  613SOL    MW4 2452   2.467   2.048   1.212 -0.5859  0.3092  0.3289
  614SOL     OW 2453   2.473   2.327   1.168  0.2578 -0.0576 -0.0792
  614SOL    HW2 2454   2.475   2.232   1.185  0.2576 -0.0090  0.1897
  614SOL    HW3 2455   2.475   2.334   1.072 -1.3776 -0.3783 -0.1486
  614SOL    MW4 2456   2.474   2.315   1.157  0.0420 -0.0935 -0.0529
  615SOL     OW 2457   2.218   2.410   1.208 -0.2355 -0.4062  0.2827
  615SOL    HW2 2458   2.214   2.426   1.302  1.0156  0.3816  0.2060
  615SOL    HW3 2459   2.305   2.374   1.193 -0.0515  0.4074 -0.6995
  615SOL    MW4 2460   2.229   2.408   1.218 -0.0461 -0.1949  0.1430
  616SOL     OW 2461   2.246   2.687   1.162  0.0654  0.3977 -0.0449
  616SOL    HW2 2462   2.234   2.592   1.168  1.1096  0.2804  0.3364
  616SOL    HW3 2463   2.160   2.723   1.182 -0.1990 -0.4534  0.3804
  616SOL    MW4 2464   2.233   2.679   1.165  0.1683  0.2700  0.0615
  617SOL     OW 2465   2.439   2.827   1.294  0.4795 -0.5260 -0.0622
  617SOL    HW2 2466   2.445   2.804   1.387  0.4853 -0.5591 -0.0708
  617SOL    HW3 2467   2.379   2.763   1.257 -2.0493  1.3676  0.5532
  617SOL    MW4 2468   2.432   2.816   1.301  0.1466 -0.2805  0.0179
  618SOL     OW 2469   2.481   3.075   1.190  0.5621  0.0032 -0.1744
  618SOL    HW2 2470   2.402   3.119   1.222 -0.6026 -0.9810 -1.6005
  618SOL    HW3 2471   2.479   2.989   1.233 -0.9392 -1.2750 -2.6595
  618SOL    MW4 2472   2.470   3.069   1.200  0.2103 -0.2953 -0.6904
  619SOL     OW 2473   2.268   3.221   1.296 -0.3629  0.1675 -0.3007
  619SOL    HW2 2474   2.240   3.309   1.271 -1.1434 -0.2890 -1.0646
  619SOL    HW3 2475   2.190   3.166   1.284  0.0629 -0.6031  0.3300
  619SOL    MW4 2476   2.254   3.225   1.291 -0.4097  0.0056 -0.3183
  620SOL     OW 2477   2.227   3.494   1.187  0.2768  0.5721 -0.0191
  620SOL    HW2 2478   2.314   3.533   1.178  0.5832 -0.3567 -1.2194
  620SOL    HW3 2479   2.196   3.485   1.096  0.4289 -2.4686  0.1862
  620SOL    MW4 2480   2.234   3.498   1.174  0.3373  0.0484 -0.1504
  621SOL     OW 2481   2.494   3.610   1.203 -0.1103 -0.2265  0.1934
  621SOL    HW2 2482   2.472   3.605   1.296 -0.0732 -2.6240  0.1244
  621SOL    HW3 2483   2.508   3.703   1.186 -0.6667  0.3032  2.4501
  621SOL    MW4 2484   2.493   3.621   1.213 -0.1788 -0.4729  0.4820
  622SOL     OW 2485   2.470   3.903   1.139  0.3751  0.6805 -0.1466
  622SOL    HW2 2486   2.394   3.938   1.184  0.3736  0.6631 -0.1356
  622SOL    HW3 2487   2.448   3.907   1.046  0.4795  0.9542 -0.1618
  622SOL    MW4 2488   2.457   3.908   1.133  0.3887  0.7143 -0.1471
  623SOL     OW 2489   2.247   4.009   1.274 -0.3909 -0.1036 -0.1440
  623SOL    HW2 2490   2.259   4.096   1.236  0.9817 -0.1052  0.2408
  623SOL    HW3 2491   2.173   3.972   1.226  0.3618  0.4730 -1.7929
  623SOL    MW4 2492   2.239   4.016   1.262 -0.1105 -0.0277 -0.3108
  624SOL     OW 2493   2.274   4.245   1.138  0.1825  0.0145 -0.0791
  624SOL    HW2 2494   2.200   4.289   1.179 -0.7687 -2.1362  0.5647
  624SOL    HW3 2495   2.263   4.262   1.044 -0.7646  0.2275  0.0679
  624SOL    MW4 2496   2.263   4.253   1.131 -0.0680 -0.2411  0.0253
  625SOL     OW 2497   2.457   4.403   1.249  0.1322 -0.1615 -0.4335
  625SOL    HW2 2498   2.390   4.352   1.203 -0.9457  0.9501 -0.1616
  625SOL    HW3 2499   2.461   4.486   1.200  1.1792 -0.1465 -0.3343
  625SOL    MW4 2500   2.448   4.407   1.236  0.1281 -0.0128 -0.3845
  626SOL     OW 2501   2.916   4.645   1.138  0.5547 -0.0080 -0.0736
  626SOL    HW2 2502   2.928   4.554   1.166 -0.5118 -0.0337  0.3243
  626SOL    HW3 2503   2.889   4.638   1.047  0.4113 -0.1014 -0.0258
  626SOL    MW4 2504   2.914   4.632   1.130  0.3951 -0.0237 -0.0148
  627SOL     OW 2505   2.737   0.151   1.235 -0.5895 -0.5329 -0.0255
  627SOL    HW2 2506   2.745   0.148   1.330 -1.1498 -0.3490  0.0290
  627SOL    HW3 2507   2.801   0.087   1.203 -0.4116 -0.6040  0.4736
  627SOL    MW4 2508   2.746   0.142   1.243 -0.6399 -0.5180  0.0475
  628SOL     OW 2509   2.716   0.379   1.088  0.6077 -0.2282 -0.8377
  628SOL    HW2 2510   2.712   0.298   1.138  0.2710  0.4226  0.2027
  628SOL    HW3 2511   2.649   0.435   1.127  1.2680  0.7850 -1.1263
  628SOL    MW4 2512   2.707   0.376   1.099  0.6504 -0.0087 -0.7385
  629SOL     OW 2513   2.916   0.516   1.208  0.0371  0.0710  0.0251
  629SOL    HW2 2514   2.918   0.606   1.175  1.9190 -0.0438 -0.2233
  629SOL    HW3 2515   2.854   0.471   1.151  0.2722  0.8377 -0.8442
  629SOL    MW4 2516   2.908   0.522   1.196  0.3164  0.1570 -0.1223
  630SOL     OW 2517   2.901   0.780   1.116 -0.1607 -0.6468  0.0676
  630SOL    HW2 2518   2.987   0.806   1.148 -0.5670 -0.8135  1.3128
  630SOL    HW3 2519   2.839   0.834   1.165 -0.6585  1.8617 -3.1509
  630SOL    MW4 2520   2.904   0.791   1.127 -0.2800 -0.3378 -0.1927
  631SOL     OW 2521   2.682   0.907   1.258  0.3586  0.2846 -0.1465
  631SOL    HW2 2522   2.667   0.989   1.211  0.1152  0.5187  0.3377
  631SOL    HW3 2523   2.621   0.845   1.218  0.1074  0.4995 -0.1013
  631SOL    MW4 2524   2.672   0.909   1.247  0.2934  0.3438 -0.0767
  632SOL     OW 2525   2.698   1.146   1.101  0.2992 -0.1120  0.5071
  632SOL    HW2 2526   2.780   1.193   1.116  0.3402 -0.4701  1.4279
  632SOL    HW3 2527   2.668   1.178   1.015  2.2112 -1.1731 -0.5963
  632SOL    MW4 2528   2.705   1.157   1.091  0.5568 -0.2993  0.4830
  633SOL     OW 2529   2.919   1.281   1.215 -0.4116  0.3696  0.0464
  633SOL    HW2 2530   2.910   1.293   1.309 -1.1683 -0.7228  0.1259
  633SOL    HW3 2531   2.927   1.369   1.179 -0.5851  0.8046  1.0805
  633SOL    MW4 2532   2.919   1.294   1.223 -0.5343  0.2829  0.1933
  634SOL     OW 2533   2.910   1.529   1.092 -0.4291  0.0027 -0.3668
  634SOL    HW2 2534   2.961   1.606   1.120  0.2687 -0.7762  0.5586
  634SOL    HW3 2535   2.937   1.514   1.002 -1.8258  1.8563 -1.1210
  634SOL    MW4 2536   2.920   1.538   1.084 -0.5213  0.1445 -0.3442
  635SOL     OW 2537   2.697   1.650   1.224 -0.4469 -0.5206  0.2936
  635SOL    HW2 2538   2.776   1.604   1.193 -1.1559 -0.9721 -0.8463
  635SOL    HW3 2539   2.625   1.593   1.199 -1.1180 -0.3914  1.8713
  635SOL    MW4 2540   2.698   1.636   1.216 -0.6290 -0.5631  0.3514
  636SOL     OW 2541   2.685   1.918   1.124  0.1502  0.2054 -0.5642
  636SOL    HW2 2542   2.745   1.964   1.183  0.2346 -0.0834 -0.4204
  636SOL    HW3 2543   2.688   1.827   1.154  1.3284 -0.2371 -1.9398
  636SOL    MW4 2544   2.694   1.912   1.136  0.3168  0.1089 -0.7268
  637SOL     OW 2545   2.843   2.091   1.258  0.1078 -0.1652  0.2245
  637SOL    HW2 2546   2.867   2.100   1.350 -2.4374  0.5006  0.8474
  637SOL    HW3 2547   2.836   2.182   1.227  0.4670 -0.3816 -0.4942
  637SOL    MW4 2548   2.845   2.104   1.266 -0.1806 -0.1059  0.2118
  638SOL     OW 2549   2.892   2.356   1.161 -0.2874  0.4559  0.1144
  638SOL    HW2 2550   2.975   2.401   1.180  0.2570  0.3665 -1.9469
  638SOL    HW3 2551   2.825   2.417   1.191  0.5075  0.5164  1.8499
  638SOL    MW4 2552   2.894   2.370   1.168 -0.1107  0.4521  0.0714
  639SOL     OW 2553   2.686   2.506   1.234  0.5713 -0.3529 -0.4298
  639SOL    HW2 2554   2.687   2.524   1.328 -1.1666  0.5329 -0.5651
  639SOL    HW3 2555   2.610   2.450   1.220  1.4279 -1.3596 -1.1734
  639SOL    MW4 2556   2.676   2.501   1.244  0.4550 -0.3689 -0.5458
  640SOL     OW 2557   2.665   2.768   1.142  0.1001 -0.0293 -0.2124
  640SOL    HW2 2558   2.670   2.678   1.174 -0.1335  0.2216  0.5475
  640SOL    HW3 2559   2.589   2.805   1.186 -0.5537  0.1656 -1.5052
  640SOL    MW4 2560   2.656   2.761   1.152 -0.0170  0.0295 -0.2827
  641SOL     OW 2561   2.921   2.834   1.241 -0.0761  0.1735 -0.1568
  641SOL    HW2 2562   2.906   2.840   1.336 -1.5656  0.3650 -0.3922
  641SOL    HW3 2563   2.836   2.808   1.205  0.7918 -1.1085 -1.3230
  641SOL    MW4 2564   2.908   2.831   1.249 -0.1581  0.0296 -0.3417
  642SOL     OW 2565   2.907   3.098   1.154 -0.0456 -0.1699 -0.5150
  642SOL    HW2 2566   2.915   3.003   1.157  0.0701 -0.1439  0.2369
  642SOL    HW3 2567   2.901   3.119   1.061 -0.5381 -0.9495 -0.6646
  642SOL    MW4 2568   2.907   3.088   1.142 -0.0953 -0.2693 -0.4356
  643SOL     OW 2569   2.688   3.247   1.263  0.3082  0.2941  0.2363
  643SOL    HW2 2570   2.769   3.206   1.233  0.4707 -0.1708  1.2788
  643SOL    HW3 2571   2.619   3.186   1.237  0.5174 -0.4836  1.4624
  643SOL    MW4 2572   2.689   3.234   1.255  0.3573  0.1302  0.5356
  644SOL     OW 2573   2.704   3.462   1.103  0.4707  0.2887  0.1506
  644SOL    HW2 2574   2.714   3.388   1.163 -0.4146 -0.6501 -0.8565
  644SOL    HW3 2575   2.624   3.506   1.133 -0.0148 -0.2254 -0.3787
  644SOL    MW4 2576   2.695   3.458   1.115  0.2899  0.0970 -0.0521
  645SOL     OW 2577   2.888   3.597   1.250  0.0813 -0.2060  0.1120
  645SOL    HW2 2578   2.971   3.568   1.210  0.3762  0.9544 -0.1249
  645SOL    HW3 2579   2.821   3.548   1.203  0.5987 -0.7781 -0.0480
  645SOL    MW4 2580   2.890   3.586   1.238  0.1885 -0.1284  0.0596
  646SOL     OW 2581   2.911   3.847   1.147  0.4543  0.2253 -0.7035
  646SOL    HW2 2582   2.982   3.885   1.197  0.3852  0.6063 -0.8981
  646SOL    HW3 2583   2.889   3.766   1.194  1.0697  0.0612 -0.6934
  646SOL    MW4 2584   2.917   3.841   1.159  0.5264  0.2539 -0.7278
  647SOL     OW 2585   2.710   3.983   1.260 -0.0074  0.2346  0.2350
  647SOL    HW2 2586   2.782   3.936   1.217  0.7327  0.3802  1.3049
  647SOL    HW3 2587   2.631   3.948   1.218  0.5383 -1.8065  0.8404
  647SOL    MW4 2588   2.709   3.972   1.249  0.1622 -0.0155  0.4561
  648SOL     OW 2589   2.701   4.250   1.164 -0.4487  0.0723 -0.2176
  648SOL    HW2 2590   2.705   4.160   1.195  1.9928  0.5237  0.8725
  648SOL    HW3 2591   2.633   4.291   1.218 -1.5784 -1.1087 -0.7380
  648SOL    MW4 2592   2.692   4.244   1.175 -0.2757 -0.0240 -0.1424
  649SOL     OW 2593   2.925   4.394   1.255 -0.3622  0.3293 -0.2348
  649SOL    HW2 2594   3.003   4.346   1.230 -0.4342  0.3399 -0.4755
  649SOL    HW3 2595   2.852   4.340   1.223 -0.4497  0.4046 -0.1626
  649SOL    MW4 2596   2.926   4.380   1.248 -0.3833  0.3406 -0.2570
  650SOL     OW 2597   3.377   0.008   1.115  0.2845  0.3628 -0.1440
  650SOL    HW2 2598   3.450   0.051   1.159 -0.4650  2.7140 -1.1249
  650SOL    HW3 2599   3.299   0.049   1.153 -0.4201  0.5788 -1.7972
  650SOL    MW4 2600   3.376   0.019   1.126  0.0926  0.7015 -0.4915
  651SOL     OW 2601   3.127   0.117   1.214 -0.0980  0.3501  0.0345
  651SOL    HW2 2602   3.107   0.112   1.307  0.1079  0.3380  0.0780
  651SOL    HW3 2603   3.058   0.066   1.171 -1.9628  2.8799 -0.0666
  651SOL    MW4 2604   3.115   0.109   1.220 -0.3169  0.6823  0.0269
  652SOL     OW 2605   3.164   0.384   1.137 -0.0641  0.1273  0.5144
  652SOL    HW2 2606   3.143   0.291   1.149 -0.2065  0.0588 -0.2169
  652SOL    HW3 2607   3.084   0.430   1.161 -0.8235 -0.0881 -1.5261
  652SOL    MW4 2608   3.151   0.378   1.142 -0.1831  0.0899  0.1487
  653SOL     OW 2609   3.375   0.521   1.274 -0.0817  0.0965 -0.1745
  653SOL    HW2 2610   3.381   0.609   1.236  0.2489 -0.3106 -1.0659
  653SOL    HW3 2611   3.309   0.477   1.222  0.4781 -0.5126 -0.3715
  653SOL    MW4 2612   3.367   0.527   1.262  0.0358 -0.0376 -0.3181
  654SOL     OW 2613   3.398   0.772   1.165 -0.2807 -0.4028  0.2593
  654SOL    HW2 2614   3.311   0.810   1.176  0.4216  1.3573 -0.1250
  654SOL    HW3 2615   3.404   0.754   1.071  0.4065  1.0979  0.0006
  654SOL    MW4 2616   3.387   0.775   1.154 -0.0974  0.0275  0.1744
  655SOL     OW 2617   3.142   0.891   1.209 -0.0652 -0.5903 -0.0278
  655SOL    HW2 2618   3.153   0.896   1.304 -0.2154  0.2019 -0.0535
  655SOL    HW3 2619   3.151   0.981   1.178 -0.3202 -0.8016 -0.7378
  655SOL    MW4 2620   3.145   0.904   1.217 -0.1187 -0.5137 -0.1249
  656SOL     OW 2621   3.157   1.149   1.142  0.0863 -0.2976 -0.2482
  656SOL    HW2 2622   3.239   1.195   1.158  1.2821 -1.8387 -1.8452
  656SOL    HW3 2623   3.089   1.211   1.171  1.7854  0.8270  1.4493
  656SOL    MW4 2624   3.159   1.163   1.148  0.4682 -0.3525 -0.2349
  657SOL     OW 2625   3.371   1.307   1.195 -0.2324  0.0308  0.2744
  657SOL    HW2 2626   3.376   1.320   1.289 -0.7289 -0.3500  0.3524
  657SOL    HW3 2627   3.339   1.391   1.161  2.1161  0.9362  0.2157
  657SOL    MW4 2628   3.368   1.320   1.203  0.0120  0.1000  0.2769
  658SOL     OW 2629   3.297   1.558   1.090  0.3400 -0.0710  0.1310
  658SOL    HW2 2630   3.375   1.591   1.134  0.2435  0.9461 -0.4332
  658SOL    HW3 2631   3.226   1.612   1.124 -0.0636 -0.7759  0.3980
  658SOL    MW4 2632   3.298   1.570   1.100  0.2740 -0.0298  0.0918
  659SOL     OW 2633   3.100   1.715   1.209 -0.2624 -0.0204  0.0381
  659SOL    HW2 2634   3.081   1.713   1.303  1.1972 -0.5806  0.3386
  659SOL    HW3 2635   3.081   1.804   1.182 -1.2695 -0.0149  0.7344
  659SOL    MW4 2636   3.095   1.726   1.218 -0.2027 -0.0936  0.1696
  660SOL     OW 2637   3.075   1.992   1.133  0.1918  0.1259 -0.0836
  660SOL    HW2 2638   3.160   2.022   1.165  0.5592 -1.1551  0.1615
  660SOL    HW3 2639   3.012   2.030   1.194  0.5151  1.7665 -0.7530
  660SOL    MW4 2640   3.078   2.001   1.145  0.2829  0.1733 -0.1396
  661SOL     OW 2641   3.316   2.062   1.229 -0.2328  0.2152 -0.1130
  661SOL    HW2 2642   3.400   2.022   1.205  0.1578 -0.1306  1.8124
  661SOL    HW3 2643   3.326   2.154   1.205  0.5467  0.0974 -0.2576
  661SOL    MW4 2644   3.329   2.069   1.222 -0.0784  0.1540  0.1219
  662SOL     OW 2645   3.333   2.310   1.154  0.1282  0.1972 -0.1943
  662SOL    HW2 2646   3.407   2.358   1.191 -0.2786 -0.9193  2.1772
  662SOL    HW3 2647   3.256   2.358   1.185 -0.2211 -0.5857  0.1541
  662SOL    MW4 2648   3.333   2.323   1.163  0.0285 -0.0534  0.1646
  663SOL     OW 2649   3.133   2.456   1.257  0.5498 -0.3389 -0.0155
  663SOL    HW2 2650   3.141   2.467   1.352 -1.1276  0.5341  0.0514
  663SOL    HW3 2651   3.154   2.543   1.222 -0.1587 -0.2919 -0.3363
  663SOL    MW4 2652   3.137   2.469   1.265  0.2350 -0.2175 -0.0490
  664SOL     OW 2653   3.150   2.713   1.143 -0.5795 -0.0741 -0.4434
  664SOL    HW2 2654   3.076   2.764   1.175 -0.1737  0.8744 -1.0009
  664SOL    HW3 2655   3.134   2.703   1.049  1.4246  2.6301 -1.1456
  664SOL    MW4 2656   3.138   2.718   1.135 -0.2615  0.4078 -0.6096
  665SOL     OW 2657   3.382   2.834   1.219  0.2621  0.3122  0.3965
  665SOL    HW2 2658   3.374   2.924   1.188  1.2877 -0.3073 -1.7834
  665SOL    HW3 2659   3.302   2.791   1.189  1.0715 -0.1900 -1.0849
  665SOL    MW4 2660   3.370   2.840   1.211  0.5042  0.1642 -0.0866
  666SOL     OW 2661   3.370   3.113   1.165 -0.5397  0.0716  0.1336
  666SOL    HW2 2662   3.437   3.165   1.209  0.3314 -1.4023  0.5905
  666SOL    HW3 2663   3.287   3.153   1.192  0.0834  0.7949  1.0157
  666SOL    MW4 2664   3.368   3.125   1.174 -0.3425 -0.0274  0.3103
  667SOL     OW 2665   3.126   3.247   1.238 -0.5249  0.4602 -0.0751
  667SOL    HW2 2666   3.111   3.323   1.182 -0.1421  0.0609 -0.7271
  667SOL    HW3 2667   3.051   3.190   1.223 -0.6144  0.5278  0.1121
  667SOL    MW4 2668   3.114   3.249   1.229 -0.4862  0.4164 -0.1364
  668SOL     OW 2669   3.113   3.499   1.110 -0.1341 -0.4683  0.3094
  668SOL    HW2 2670   3.198   3.514   1.152 -0.0221 -1.7230  0.5591
  668SOL    HW3 2671   3.131   3.510   1.017  0.1427  0.0044  0.4178
  668SOL    MW4 2672   3.127   3.502   1.103 -0.0828 -0.5715  0.3566
  669SOL     OW 2673   3.315   3.616   1.260 -0.1015  0.0099 -0.1703
  669SOL    HW2 2674   3.314   3.613   1.356 -0.6652 -3.3575 -0.1930
  669SOL    HW3 2675   3.393   3.566   1.235  0.7409  1.9317 -1.4896
  669SOL    MW4 2676   3.325   3.609   1.270 -0.0647 -0.1808 -0.3473
  670SOL     OW 2677   3.348   3.864   1.159  0.1853 -0.4618 -0.0596
  670SOL    HW2 2678   3.344   3.774   1.190 -0.4989 -0.2264  0.5507
  670SOL    HW3 2679   3.271   3.906   1.196  0.1195  0.1989 -0.9201
  670SOL    MW4 2680   3.337   3.858   1.168  0.0864 -0.3436 -0.0926
  671SOL     OW 2681   3.128   3.984   1.248 -0.1071 -0.2234  0.2295
  671SOL    HW2 2682   3.140   3.982   1.343  0.2850  0.0671  0.1825
  671SOL    HW3 2683   3.141   4.075   1.224 -3.3284  0.3207  0.3102
  671SOL    MW4 2684   3.131   3.995   1.257 -0.4804 -0.1133  0.2339
  672SOL     OW 2685   3.143   4.239   1.174 -0.4086 -0.0803 -0.0219
  672SOL    HW2 2686   3.232   4.264   1.201 -0.7104 -0.2084  1.1284
  672SOL    HW3 2687   3.146   4.240   1.078  1.2434 -1.5055 -0.0233
  672SOL    MW4 2688   3.155   4.242   1.165 -0.2304 -0.2853  0.1297
  673SOL     OW 2689   3.388   4.401   1.226  0.1643 -0.5912 -0.4187
  673SOL    HW2 2690   3.466   4.365   1.183  0.7548  0.8833 -0.5883
  673SOL    HW3 2691   3.375   4.486   1.184 -0.6730 -0.1959  0.6420
  673SOL    MW4 2692   3.397   4.407   1.215  0.1317 -0.3445 -0.3011
  674SOL     OW 2693   3.836   0.000   1.131  0.6013 -0.5853  0.5129
  674SOL    HW2 2694   3.833  -0.086   1.173 -2.6009 -1.0552 -0.5626
  674SOL    HW3 2695   3.813  -0.016   1.039 -0.3792  1.4407  0.3571
  674SOL    MW4 2696   3.832  -0.013   1.124  0.0495 -0.3800  0.3504
  675SOL     OW 2697   3.602   0.136   1.251  0.2903 -0.1152  0.2062
  675SOL    HW2 2698   3.586   0.222   1.212 -1.3854 -0.9065 -0.9327
  675SOL    HW3 2699   3.680   0.103   1.206 -0.8280 -0.4416 -1.5449
  675SOL    MW4 2700   3.610   0.143   1.240 -0.0783 -0.2626 -0.1751
  676SOL     OW 2701   3.605   0.407   1.163  0.2130  0.1854  0.1792
  676SOL    HW2 2702   3.684   0.432   1.210  0.3616  0.0127  0.0215
  676SOL    HW3 2703   3.534   0.448   1.212  0.4141  0.4812  0.2249
  676SOL    MW4 2704   3.606   0.416   1.175  0.2591  0.2016  0.1644
  677SOL     OW 2705   3.840   0.519   1.239 -0.1870  0.0826 -0.2041
  677SOL    HW2 2706   3.924   0.482   1.210 -0.6228 -0.5220 -0.6864
  677SOL    HW3 2707   3.831   0.600   1.188 -0.5897 -0.5923 -1.2074
  677SOL    MW4 2708   3.850   0.525   1.228 -0.2976 -0.0862 -0.4001
  678SOL     OW 2709   3.836   0.763   1.112 -0.5679 -0.1732 -0.0319
  678SOL    HW2 2710   3.919   0.795   1.149  0.2305  0.0071 -1.9240
  678SOL    HW3 2711   3.769   0.816   1.155  0.5281  1.8995 -0.7953
  678SOL    MW4 2712   3.838   0.774   1.123 -0.3179  0.1241 -0.3822
  679SOL     OW 2713   3.634   0.907   1.252  0.0400  0.4411  0.3718
  679SOL    HW2 2714   3.624   0.998   1.224 -0.8274  0.4663  0.7431
  679SOL    HW3 2715   3.555   0.863   1.221  0.0333  0.0145  0.9682
  679SOL    MW4 2716   3.622   0.913   1.244 -0.0754  0.3881  0.4995
  680SOL     OW 2717   3.607   1.172   1.142  0.5037 -0.1893 -0.1813
  680SOL    HW2 2718   3.682   1.219   1.179  1.5167 -0.3030 -2.0334
  680SOL    HW3 2719   3.532   1.229   1.160  1.2119  0.5128  0.6068
  680SOL    MW4 2720   3.607   1.186   1.150  0.7308 -0.1116 -0.3217
  681SOL     OW 2721   3.838   1.307   1.248  0.1344 -0.4990  0.1040
  681SOL    HW2 2722   3.845   1.300   1.343 -0.1882  0.2029  0.1840
  681SOL    HW3 2723   3.840   1.401   1.231 -0.3406 -0.6011 -0.5424
  681SOL    MW4 2724   3.839   1.319   1.258  0.0292 -0.4199  0.0293
  682SOL     OW 2725   3.787   1.587   1.142  0.2577 -0.4869 -0.3326
  682SOL    HW2 2726   3.853   1.638   1.188 -0.2890  0.0173 -0.1040
  682SOL    HW3 2727   3.823   1.574   1.055  0.7775 -0.4408 -0.1232
  682SOL    MW4 2728   3.800   1.592   1.137  0.2541 -0.4143 -0.2748
  683SOL     OW 2729   3.521   1.661   1.220 -0.4039  0.0875  0.2293
  683SOL    HW2 2730   3.512   1.756   1.210 -0.2208  0.2081  1.1603
  683SOL    HW3 2731   3.606   1.641   1.182  0.0623  0.4660  1.0593
  683SOL    MW4 2732   3.531   1.671   1.213 -0.3183  0.1533  0.4617
  684SOL     OW 2733   3.562   1.932   1.180  0.1489  0.1716  0.2994
  684SOL    HW2 2734   3.628   1.997   1.205  0.9949 -0.7904  0.5674
  684SOL    HW3 2735   3.578   1.916   1.087 -0.6626  1.0308 -0.0002
  684SOL    MW4 2736   3.573   1.939   1.171  0.1535  0.1580  0.2952
  685SOL     OW 2737   3.775   2.087   1.247 -0.2852  0.1506  0.3184
  685SOL    HW2 2738   3.789   2.106   1.339 -0.6271  0.9653  0.2047
  685SOL    HW3 2739   3.854   2.039   1.220 -0.0776  0.1282  0.9722
  685SOL    MW4 2740   3.788   2.083   1.255 -0.3029  0.2551  0.3896
  686SOL     OW 2741   3.785   2.351   1.125  0.0657  0.1628 -0.6862
  686SOL    HW2 2742   3.861   2.389   1.168 -0.4843  0.8336 -0.3030
  686SOL    HW3 2743   3.784   2.260   1.154  0.6169  0.1996 -0.5486
  686SOL    MW4 2744   3.795   2.344   1.134  0.0658  0.2561 -0.6175
  687SOL     OW 2745   3.551   2.452   1.243  0.2038  0.3432 -0.2428
  687SOL    HW2 2746   3.584   2.479   1.328  0.5682 -1.4659  0.2153
  687SOL    HW3 2747   3.629   2.424   1.195 -0.1109  0.4914 -0.8515
  687SOL    MW4 2748   3.566   2.452   1.248  0.2103  0.1241 -0.2626
  688SOL     OW 2749   3.601   2.692   1.108 -0.3680 -0.3566  0.0229
  688SOL    HW2 2750   3.578   2.615   1.160 -3.0897  1.0265  0.9776
  688SOL    HW3 2751   3.536   2.758   1.134  2.7056  2.6887  0.2144
  688SOL    MW4 2752   3.589   2.691   1.118 -0.3216  0.2276  0.1741
  689SOL     OW 2753   3.808   2.840   1.222  0.5444 -0.0387  0.6290
  689SOL    HW2 2754   3.797   2.842   1.317 -0.6734  2.2485  0.4634
  689SOL    HW3 2755   3.728   2.799   1.189 -0.0662  1.2663  0.4625
  689SOL    MW4 2756   3.796   2.835   1.230  0.3032  0.4352  0.5851
  690SOL     OW 2757   3.793   3.114   1.142  0.4352  0.1782 -0.4347
  690SOL    HW2 2758   3.799   3.024   1.174  0.7570  0.1707 -0.5159
  690SOL    HW3 2759   3.796   3.107   1.047 -1.6978  0.1119 -0.5209
  690SOL    MW4 2760   3.794   3.101   1.134  0.1962  0.1685 -0.4568
  691SOL     OW 2761   3.586   3.237   1.275  0.3632  0.2697 -0.3963
  691SOL    HW2 2762   3.579   3.312   1.216 -0.4780 -0.5227 -1.3128
  691SOL    HW3 2763   3.657   3.185   1.240 -0.5021 -0.4887 -1.0513
  691SOL    MW4 2764   3.594   3.240   1.263  0.1381  0.0651 -0.6037
  692SOL     OW 2765   3.539   3.490   1.159  0.2072  0.2781  0.1524
  692SOL    HW2 2766   3.609   3.548   1.191 -1.0252  1.0103  1.6136
  692SOL    HW3 2767   3.544   3.497   1.064  1.0881  1.5855  0.2775
  692SOL    MW4 2768   3.549   3.499   1.150  0.1609  0.5472  0.3617
  693SOL     OW 2769   3.773   3.623   1.221 -0.3220 -0.0249  0.0984
  693SOL    HW2 2770   3.771   3.636   1.315 -0.0545  0.9870 -0.0322
  693SOL    HW3 2771   3.750   3.708   1.184  0.7264 -0.1076 -0.7645
  693SOL    MW4 2772   3.770   3.636   1.228 -0.1484  0.0977 -0.0327
  694SOL     OW 2773   3.724   3.902   1.168 -0.2181  0.1678  0.1032
  694SOL    HW2 2774   3.656   3.965   1.191  1.5849  2.2581 -0.1696
  694SOL    HW3 2775   3.737   3.914   1.074 -1.3978 -2.1997 -0.4144
  694SOL    MW4 2776   3.717   3.912   1.158 -0.1358  0.1312 -0.0011
  695SOL     OW 2777   3.519   4.061   1.223 -0.4855  0.2783 -0.3603
  695SOL    HW2 2778   3.527   4.051   1.318  0.5040 -0.4152 -0.5082
  695SOL    HW3 2779   3.461   3.991   1.196 -0.2678  0.0908 -0.3425
  695SOL    MW4 2780   3.512   4.051   1.232 -0.3262  0.1620 -0.3775
  696SOL     OW 2781   3.631   4.310   1.114 -0.2803 -0.3132 -0.1944
  696SOL    HW2 2782   3.622   4.216   1.126 -0.1559 -0.0818  1.9553
  696SOL    HW3 2783   3.617   4.324   1.021 -0.5192 -2.4297 -0.4982
  696SOL    MW4 2784   3.628   4.299   1.104 -0.2954 -0.5619  0.0491
  697SOL     OW 2785   3.854   4.404   1.233  0.0423  0.7417 -0.1243
  697SOL    HW2 2786   3.839   4.406   1.328  0.0156  1.3191 -0.1427
  697SOL    HW3 2787   3.770   4.374   1.197  0.3261 -0.3511  0.0917
  697SOL    MW4 2788   3.841   4.400   1.241  0.0762  0.6737 -0.0982
  698SOL     OW 2789   4.277   4.612   1.140 -0.7337  0.6891  0.3874
  698SOL    HW2 2790   4.258   4.533   1.191 -1.0660  1.1439  0.9789
  698SOL    HW3 2791   4.205   4.672   1.161 -0.0497  1.4517  0.5939
  698SOL    MW4 2792   4.265   4.609   1.149 -0.6873  0.8498  0.4926
  699SOL     OW 2793   4.067   0.105   1.222  0.1225 -0.8245  0.1029
  699SOL    HW2 2794   4.063   0.107   1.317 -0.1644 -0.0280  0.0781
  699SOL    HW3 2795   3.982   0.070   1.194  0.1877 -1.0096  0.1384
  699SOL    MW4 2796   4.055   0.101   1.231  0.0932 -0.7439  0.1043
  700SOL     OW 2797   4.052   0.387   1.131  0.2810 -0.2286 -0.0737
  700SOL    HW2 2798   4.052   0.299   1.169 -0.9647 -0.3014 -0.2142
  700SOL    HW3 2799   4.059   0.372   1.036 -4.0333 -0.4003 -0.4569
  700SOL    MW4 2800   4.053   0.373   1.123 -0.4526 -0.2608 -0.1428
  701SOL     OW 2801   4.266   0.525   1.239 -0.2635 -0.0365  0.3020
  701SOL    HW2 2802   4.249   0.515   1.333 -0.6620  2.0622  0.4731
  701SOL    HW3 2803   4.185   0.497   1.197 -1.0209  1.4322  0.7261
  701SOL    MW4 2804   4.253   0.520   1.246 -0.4160  0.4342  0.3805
  702SOL     OW 2805   4.278   0.789   1.134  0.1767  0.5182  0.4929
  702SOL    HW2 2806   4.285   0.708   1.183  0.4284 -0.4473 -1.0965
  702SOL    HW3 2807   4.295   0.764   1.043  0.5354  2.3844  0.0098
  702SOL    MW4 2808   4.281   0.775   1.128  0.2573  0.6371  0.2195
  703SOL     OW 2809   4.062   0.936   1.201  0.1858 -0.0262  0.1253
  703SOL    HW2 2810   4.056   0.921   1.295 -0.5676  0.2189  0.1161
  703SOL    HW3 2811   4.149   0.904   1.178 -0.2642 -1.6620  0.6028
  703SOL    MW4 2812   4.073   0.930   1.210  0.0271 -0.2097  0.1871
  704SOL     OW 2813   4.021   1.168   1.076  0.4774 -0.3729  0.1094
  704SOL    HW2 2814   4.043   1.086   1.119 -0.6719 -1.1458 -0.7589
  704SOL    HW3 2815   3.952   1.206   1.131 -0.0788 -0.7298 -0.3509
  704SOL    MW4 2816   4.015   1.162   1.089  0.2524 -0.5220 -0.0659
  705SOL     OW 2817   4.253   1.295   1.228 -0.3542 -0.2716 -0.5863
  705SOL    HW2 2818   4.229   1.284   1.320  0.6456  0.8736 -0.1802
  705SOL    HW3 2819   4.179   1.259   1.179 -1.1692 -0.2970  0.6561
  705SOL    MW4 2820   4.240   1.289   1.234 -0.3298 -0.1239 -0.3688
  706SOL     OW 2821   4.235   1.565   1.151  0.2230 -0.2968  0.2632
  706SOL    HW2 2822   4.242   1.473   1.175  0.9028 -0.4289 -0.4088
  706SOL    HW3 2823   4.298   1.610   1.209  0.6099 -0.3888 -0.0820
  706SOL    MW4 2824   4.245   1.559   1.162  0.3638 -0.3263  0.1290
  707SOL     OW 2825   3.990   1.687   1.305  0.2144  0.5255 -0.1727
  707SOL    HW2 2826   3.999   1.702   1.400  1.2807 -0.7489 -0.0642
  707SOL    HW3 2827   4.075   1.652   1.278 -0.1236  0.7760 -1.5861
  707SOL    MW4 2828   4.002   1.684   1.314  0.3105  0.3904 -0.3449
  708SOL     OW 2829   3.991   1.936   1.165 -0.4170  0.1484 -0.0478
  708SOL    HW2 2830   3.987   1.850   1.206 -2.1353  0.5907  0.7550
  708SOL    HW3 2831   4.020   1.919   1.076 -1.1408 -1.3077 -0.0143
  708SOL    MW4 2832   3.994   1.922   1.159 -0.7392  0.0147  0.0626
  709SOL     OW 2833   4.232   2.069   1.256  0.3792  0.5182 -0.2396
  709SOL    HW2 2834   4.224   2.161   1.230 -1.7118  0.6179  0.6615
  709SOL    HW3 2835   4.148   2.030   1.232  1.5364 -1.3777 -1.3716
  709SOL    MW4 2836   4.220   2.076   1.249  0.2560  0.2812 -0.2701
  710SOL     OW 2837   4.253   2.321   1.159  0.0263 -0.3432  0.0031
  710SOL    HW2 2838   4.176   2.362   1.198 -0.6383 -2.5866  1.1516
  710SOL    HW3 2839   4.243   2.337   1.065 -1.0827  0.6125  0.2703
  710SOL    MW4 2840   4.241   2.329   1.151 -0.2077 -0.5131  0.1899
  711SOL     OW 2841   4.023   2.458   1.256  0.5774 -0.2516  0.1153
  711SOL    HW2 2842   4.036   2.452   1.351  0.3585  2.1677  0.3360
  711SOL    HW3 2843   4.045   2.549   1.235 -1.6297 -0.1303 -1.8047
  711SOL    MW4 2844   4.028   2.469   1.266  0.2573  0.0836 -0.1089
  712SOL     OW 2845   4.062   2.723   1.172 -0.8030 -0.2134  0.2943
  712SOL    HW2 2846   3.971   2.735   1.201 -0.3303  2.4887  0.7537
  712SOL    HW3 2847   4.058   2.730   1.077 -0.7529  2.2999  0.4633
  712SOL    MW4 2848   4.049   2.725   1.163 -0.7340  0.4747  0.3772
  713SOL     OW 2849   4.276   2.877   1.222  0.1274  0.1539 -0.2161
  713SOL    HW2 2850   4.267   2.970   1.202 -1.3128  0.1094  0.1927
  713SOL    HW3 2851   4.190   2.839   1.204  0.5743 -1.0251  0.0419
  713SOL    MW4 2852   4.264   2.884   1.217 -0.0037 -0.0075 -0.1281
  714SOL     OW 2853   4.258   3.141   1.153  0.1780 -0.3182  0.0799
  714SOL    HW2 2854   4.176   3.191   1.151 -0.2648 -0.9782  1.2332
  714SOL    HW3 2855   4.275   3.121   1.061 -1.8922 -1.6735 -0.0504
  714SOL    MW4 2856   4.249   3.145   1.141 -0.1536 -0.5841  0.2149
  715SOL     OW 2857   4.002   3.271   1.182  0.0502 -0.2668 -0.0286
  715SOL    HW2 2858   4.026   3.276   1.274 -0.6078  0.4654  0.1006
  715SOL    HW3 2859   3.925   3.215   1.179 -0.4819  0.4584 -0.0289
  715SOL    MW4 2860   3.995   3.264   1.194 -0.1068 -0.0745 -0.0116
  716SOL     OW 2861   4.010   3.542   1.113 -0.1643  0.1015 -0.1268
  716SOL    HW2 2862   4.001   3.448   1.102  0.8662  0.0728 -0.7780
  716SOL    HW3 2863   3.926   3.570   1.150 -0.2596 -1.1457  0.6151
  716SOL    MW4 2864   3.998   3.533   1.116 -0.0409 -0.0668 -0.1148
  717SOL     OW 2865   4.221   3.625   1.258 -0.0389  0.0612 -0.1120
  717SOL    HW2 2866   4.156   3.596   1.195  1.2677 -0.3917 -1.2922
  717SOL    HW3 2867   4.304   3.589   1.225  0.4909 -1.4614  2.6477
  717SOL    MW4 2868   4.224   3.616   1.246  0.2034 -0.1995  0.0964
  718SOL     OW 2869   4.234   3.879   1.126  0.7204 -0.5914 -0.5287
  718SOL    HW2 2870   4.152   3.909   1.164  1.0654  0.7380 -0.7953
  718SOL    HW3 2871   4.250   3.794   1.167  0.4377  0.2270  1.3302
  718SOL    MW4 2872   4.225   3.872   1.137  0.7286 -0.3080 -0.3186
  719SOL     OW 2873   3.994   3.965   1.235 -0.0083 -0.3259 -0.0065
  719SOL    HW2 2874   4.001   4.051   1.194  0.3967 -0.3661 -0.0188
  719SOL    HW3 2875   3.913   3.928   1.199  0.1970 -0.2458 -0.5568
  719SOL    MW4 2876   3.984   3.972   1.225  0.0722 -0.3206 -0.0807
  720SOL     OW 2877   4.250   4.362   1.241  0.2768  0.0841  0.0873
  720SOL    HW2 2878   4.173   4.319   1.203  0.6298 -0.4171 -0.0644
  720SOL    HW3 2879   4.325   4.319   1.200  0.6524 -0.0219  0.8678
  720SOL    MW4 2880   4.250   4.351   1.231  0.3729  0.0040  0.1703
  721SOL     OW 2881   4.015   4.204   1.135 -0.0527 -0.8743  0.7421
  721SOL    HW2 2882   3.955   4.277   1.152  0.1832 -0.6925  0.8008
  721SOL    HW3 2883   4.050   4.221   1.048 -0.5743 -1.3234  0.4447
  721SOL    MW4 2884   4.012   4.216   1.126 -0.0904 -0.9095  0.7106
  722SOL     OW 2885   0.228   4.652   1.629 -0.0734 -0.0722 -0.5855
  722SOL    HW2 2886   0.309   4.693   1.599  0.2421  0.3674  0.8367
  722SOL    HW3 2887   0.158   4.704   1.590  0.3201 -0.0806 -1.3099
  722SOL    MW4 2888   0.229   4.664   1.620  0.0201 -0.0153 -0.4934
  723SOL     OW 2889   0.022   0.122   1.494  0.3861 -0.1971 -0.3131
  723SOL    HW2 2890  -0.058   0.081   1.529  0.5030 -0.9111 -0.8592
  723SOL    HW3 2891   0.013   0.114   1.399  0.8411  0.2432 -0.3945
  723SOL    MW4 2892   0.010   0.115   1.486  0.4615 -0.2332 -0.3959
  724SOL     OW 2893   4.478   0.377   1.612  0.1630  0.0524  0.0192
  724SOL    HW2 2894   4.487   0.367   1.707  0.9848  1.9756  0.1805
  724SOL    HW3 2895   4.483   0.288   1.578  1.2771 -0.5582  1.6691
  724SOL    MW4 2896   4.480   0.364   1.620  0.4184  0.2256  0.2582
  725SOL     OW 2897   0.166   0.550   1.496 -0.0622  0.0711  0.2322
  725SOL    HW2 2898   0.098   0.494   1.532 -1.8665  2.0085 -0.0850
  725SOL    HW3 2899   0.168   0.528   1.403  0.3110 -0.5386  0.3789
  725SOL    MW4 2900   0.157   0.540   1.488 -0.2510  0.2463  0.2097
  726SOL     OW 2901   0.236   0.811   1.583  0.3224  0.0307 -0.4193
  726SOL    HW2 2902   0.321   0.837   1.547  1.0867  0.1286  1.4365
  726SOL    HW3 2903   0.227   0.718   1.559 -0.3881  0.7324 -3.1220
  726SOL    MW4 2904   0.246   0.802   1.575  0.3295  0.1362 -0.5310
  727SOL     OW 2905   4.481   0.885   1.495  0.5457  0.0896 -0.0984
  727SOL    HW2 2906   4.470   0.977   1.518  0.2261 -0.5181  2.3641
  727SOL    HW3 2907   4.559   0.857   1.544 -0.4779 -1.3967  0.7304
  727SOL    MW4 2908   4.490   0.893   1.505  0.3685 -0.1867  0.3358
  728SOL     OW 2909   0.017   1.155   1.594  0.5269 -0.4313 -0.2465
  728SOL    HW2 2910   0.011   1.143   1.689 -0.7340 -0.6403 -0.3456
  728SOL    HW3 2911   0.095   1.210   1.582  0.9788 -0.8027  0.8652
  728SOL    MW4 2912   0.027   1.161   1.605  0.4201 -0.5079 -0.1129
  729SOL     OW 2913   0.218   1.328   1.514  0.0821 -0.1621  0.2776
  729SOL    HW2 2914   0.235   1.421   1.525 -3.6883  0.5256  1.0700
  729SOL    HW3 2915   0.199   1.318   1.421  0.9514 -0.2513  0.1040
  729SOL    MW4 2916   0.218   1.339   1.503 -0.3007 -0.0831  0.3593
  730SOL     OW 2917   0.206   1.584   1.615  0.4468  0.4439 -0.1254
  730SOL    HW2 2918   0.215   1.556   1.706  0.3731  1.2060  0.1186
  730SOL    HW3 2919   0.116   1.615   1.608  0.2378 -0.2728 -0.6447
  730SOL    MW4 2920   0.195   1.585   1.626  0.4095  0.4499 -0.1617
  731SOL     OW 2921   4.458   1.723   1.546 -0.1490 -0.4216  0.0795
  731SOL    HW2 2922   4.494   1.810   1.563  3.0515 -1.8682  1.2011
  731SOL    HW3 2923   4.470   1.710   1.452  0.4457 -0.0938  0.1086
  731SOL    MW4 2924   4.465   1.733   1.536  0.3517 -0.5692  0.2313
  732SOL     OW 2925   0.018   2.000   1.625  0.0187 -0.2823 -0.0774
  732SOL    HW2 2926   0.010   1.973   1.717 -1.7734 -0.2178 -0.2026
  732SOL    HW3 2927  -0.071   2.015   1.596  0.6534  0.8837 -1.5040
  732SOL    MW4 2928   0.006   1.998   1.633 -0.1340 -0.1199 -0.2821
  733SOL     OW 2929   0.258   2.055   1.496 -0.4703 -0.1078  0.2057
  733SOL    HW2 2930   0.249   2.050   1.401 -0.9862 -1.2162  0.3037
  733SOL    HW3 2931   0.175   2.023   1.530 -0.8748  1.7112  1.0358
  733SOL    MW4 2932   0.246   2.050   1.488 -0.5918 -0.0141  0.3282
  734SOL     OW 2933   0.215   2.332   1.601 -0.0249 -0.1082 -0.1292
  734SOL    HW2 2934   0.222   2.309   1.694  0.9101  0.1603 -0.1363
  734SOL    HW3 2935   0.226   2.249   1.555 -1.7774 -0.4538  0.0395
  734SOL    MW4 2936   0.217   2.318   1.608 -0.1328 -0.1183 -0.1079
  735SOL     OW 2937   4.481   2.457   1.537 -0.1030 -0.3050 -0.0940
  735SOL    HW2 2938   4.410   2.408   1.578 -0.3511 -1.2183 -1.5372
  735SOL    HW3 2939   4.561   2.420   1.575 -0.3640  0.0063  0.7674
  735SOL    MW4 2940   4.483   2.446   1.547 -0.1701 -0.3844 -0.1707
  736SOL     OW 2941   4.462   2.716   1.661 -0.6711  0.3163  0.0931
  736SOL    HW2 2942   4.384   2.749   1.617 -0.7826 -0.3039 -0.1841
  736SOL    HW3 2943   4.480   2.632   1.619 -0.2845  0.1092  0.6541
  736SOL    MW4 2944   4.454   2.709   1.650 -0.6348  0.2071  0.1305
  737SOL     OW 2945   0.184   2.828   1.493 -0.0526 -0.1240 -0.3682
  737SOL    HW2 2946   0.265   2.796   1.533  0.6564  1.3430 -0.5820
  737SOL    HW3 2947   0.115   2.800   1.554  0.6548 -0.9755  0.0585
  737SOL    MW4 2948   0.185   2.820   1.506  0.1343 -0.0428 -0.3401
  738SOL     OW 2949   0.258   3.063   1.599 -0.0415  0.1055  0.0490
  738SOL    HW2 2950   0.189   3.122   1.571  0.3286  0.5716  0.1130
  738SOL    HW3 2951   0.228   2.976   1.572  0.0139  0.4714 -1.2505
  738SOL    MW4 2952   0.245   3.059   1.591  0.0146  0.2152 -0.1140
  739SOL     OW 2953   0.029   3.204   1.499 -0.1985  0.0844 -0.2556
  739SOL    HW2 2954   0.007   3.289   1.539 -0.4627 -0.1790  0.1599
  739SOL    HW3 2955   0.034   3.223   1.405 -1.0980  0.3985 -0.2520
  739SOL    MW4 2956   0.027   3.218   1.492 -0.3520  0.0911 -0.2003
  740SOL     OW 2957   0.006   3.475   1.606 -0.3081 -0.0525  0.0477
  740SOL    HW2 2958  -0.014   3.483   1.699 -0.2070 -1.3417  0.1970
  740SOL    HW3 2959  -0.068   3.516   1.561 -0.5533  0.2055  0.6897
  740SOL    MW4 2960  -0.007   3.481   1.612 -0.3271 -0.1886  0.1521
  741SOL     OW 2961   0.241   3.602   1.522  0.4261  0.2036 -0.0487
  741SOL    HW2 2962   0.227   3.695   1.539 -0.0092  0.0551  0.4168
  741SOL    HW3 2963   0.163   3.559   1.557 -1.1557 -0.0071 -3.5917
  741SOL    MW4 2964   0.229   3.609   1.529  0.1599  0.1562 -0.4547
  742SOL     OW 2965   0.208   3.896   1.595  0.1875  0.5798 -0.2539
  742SOL    HW2 2966   0.196   3.870   1.687  0.7131 -1.7746 -0.8168
  742SOL    HW3 2967   0.297   3.930   1.591 -0.2978  1.9949  0.3590
  742SOL    MW4 2968   0.218   3.897   1.607  0.1928  0.4559 -0.2473
  743SOL     OW 2969   4.488   4.023   1.470  0.0448  0.2874  0.6409
  743SOL    HW2 2970   4.479   4.114   1.498 -2.2801 -0.4701  2.4768
  743SOL    HW3 2971   4.565   3.991   1.518  0.5683  1.1181  0.3747
  743SOL    MW4 2972   4.497   4.031   1.480 -0.1929  0.2971  0.8480
  744SOL     OW 2973   0.013   4.289   1.546 -0.1931  0.0844  0.2799
  744SOL    HW2 2974   0.026   4.283   1.640  1.5688  0.2158  0.0589
  744SOL    HW3 2975  -0.061   4.349   1.536  0.3745  1.0104  1.5444
  744SOL    MW4 2976   0.005   4.296   1.557  0.1142  0.2239  0.4176
  745SOL     OW 2977   0.238   4.409   1.476  0.2008  0.1053  0.5012
  745SOL    HW2 2978   0.158   4.361   1.499 -0.2348  0.0328 -1.1060
  745SOL    HW3 2979   0.224   4.497   1.513 -0.6786  0.1269  0.1325
  745SOL    MW4 2980   0.225   4.414   1.484  0.0273  0.0986  0.2405
  746SOL     OW 2981   0.642   0.020   1.637  0.1624  0.4315 -0.8120
  746SOL    HW2 2982   0.721   0.046   1.590  0.2636  1.8912  0.1583
  746SOL    HW3 2983   0.571   0.062   1.591  0.1242  0.6637 -0.5415
  746SOL    MW4 2984   0.643   0.029   1.625  0.1707  0.6547 -0.6483
  747SOL     OW 2985   0.429   0.141   1.505 -0.1617  0.0445  0.0482
  747SOL    HW2 2986   0.415   0.229   1.541  0.8579  0.1370  0.2520
  747SOL    HW3 2987   0.431   0.155   1.410  0.3436  0.2983  0.0940
  747SOL    MW4 2988   0.428   0.155   1.497  0.0395  0.0902  0.0811
  748SOL     OW 2989   0.391   0.398   1.576 -0.0372  0.7928  0.5469
  748SOL    HW2 2990   0.477   0.419   1.540 -0.6755 -0.8647 -2.1496
  748SOL    HW3 2991   0.335   0.471   1.550  0.3653  1.4625  1.5608
  748SOL    MW4 2992   0.395   0.410   1.568 -0.0683  0.6624  0.3249
  749SOL     OW 2993   0.649   0.520   1.489 -0.0511  0.1501  0.0443
  749SOL    HW2 2994   0.653   0.613   1.511  1.4779 -0.0239  0.5827
  749SOL    HW3 2995   0.660   0.517   1.394 -0.6621  0.5407 -0.0429
  749SOL    MW4 2996   0.651   0.532   1.479  0.0700  0.1787  0.1038
  750SOL     OW 2997   0.642   0.786   1.586  0.1522 -0.1058 -0.4658
  750SOL    HW2 2998   0.638   0.803   1.680  1.0367  1.4837 -0.6933
  750SOL    HW3 2999   0.733   0.807   1.562  0.4628 -2.3072 -1.3481
  750SOL    MW4 3000   0.654   0.791   1.596  0.3099 -0.1865 -0.6123
  751SOL     OW 3001   0.454   0.937   1.463  0.0247 -0.1329 -0.1045
  751SOL    HW2 3002   0.457   1.024   1.503  2.3369  0.4183 -1.3713
  751SOL    HW3 3003   0.523   0.888   1.508  0.2872 -0.5815 -0.9848
  751SOL    MW4 3004   0.463   0.942   1.474  0.3644 -0.1194 -0.3878
  752SOL     OW 3005   0.434   1.178   1.598 -0.2670 -0.0533  0.6843
  752SOL    HW2 3006   0.514   1.229   1.587 -0.0591 -0.6009 -0.4429
  752SOL    HW3 3007   0.368   1.224   1.546 -0.5231  0.0433  1.0909
  752SOL    MW4 3008   0.436   1.191   1.590 -0.2734 -0.1128  0.5892
  753SOL     OW 3009   0.678   1.291   1.509 -0.2025  0.0625  0.0311
  753SOL    HW2 3010   0.674   1.384   1.533 -0.2658 -0.1765  0.9328
  753SOL    HW3 3011   0.656   1.290   1.416  0.1809  0.9944 -0.0772
  753SOL    MW4 3012   0.675   1.303   1.500 -0.1603  0.1539  0.1358
  754SOL     OW 3013   0.661   1.558   1.605  0.1418 -0.7993  0.3741
  754SOL    HW2 3014   0.739   1.607   1.578  0.1924 -1.3060 -0.3951
  754SOL    HW3 3015   0.590   1.597   1.554  0.1489 -1.3973 -0.0893
  754SOL    MW4 3016   0.662   1.570   1.595  0.1494 -0.9451  0.2115
  755SOL     OW 3017   0.435   1.697   1.481 -0.0877  0.1497  0.2032
  755SOL    HW2 3018   0.452   1.779   1.527 -0.2833  0.7035 -0.7076
  755SOL    HW3 3019   0.357   1.662   1.522  0.2574  0.1942  0.9005
  755SOL    MW4 3020   0.427   1.703   1.492 -0.0679  0.2286  0.1750
  756SOL     OW 3021   0.479   1.926   1.609  0.1035  0.1831 -0.0250
  756SOL    HW2 3022   0.484   1.933   1.705 -0.0119 -0.4437  0.0252
  756SOL    HW3 3023   0.399   1.972   1.586 -0.4209 -0.5792  0.2710
  756SOL    MW4 3024   0.469   1.933   1.619  0.0191 -0.0002  0.0206
  757SOL     OW 3025   0.681   2.071   1.477 -0.1495 -0.2314  0.2728
  757SOL    HW2 3026   0.760   2.029   1.513 -0.4145 -0.6806  0.3418
  757SOL    HW3 3027   0.609   2.022   1.516 -0.4441 -1.1319 -1.3159
  757SOL    MW4 3028   0.682   2.059   1.487 -0.2233 -0.4095  0.0723
  758SOL     OW 3029   0.664   2.320   1.636 -0.0558 -0.3728  0.0652
  758SOL    HW2 3030   0.594   2.372   1.597 -0.4453 -0.6884  0.3361
  758SOL    HW3 3031   0.664   2.239   1.586  1.0877  0.2018 -0.8854
  758SOL    MW4 3032   0.654   2.316   1.624  0.0437 -0.3386 -0.0245
  759SOL     OW 3033   0.456   2.457   1.523 -0.0123  0.0636 -0.1328
  759SOL    HW2 3034   0.445   2.548   1.549  0.7595  0.0053  0.4417
  759SOL    HW3 3035   0.374   2.414   1.549 -0.0083  0.4062  0.4614
  759SOL    MW4 3036   0.444   2.463   1.530  0.0900  0.1011  0.0214
  760SOL     OW 3037   0.409   2.712   1.608  0.4108 -0.0294  0.0496
  760SOL    HW2 3038   0.414   2.709   1.704 -1.4412 -0.3514  0.1561
  760SOL    HW3 3039   0.481   2.769   1.582 -0.2279  1.5877  1.7450
  760SOL    MW4 3040   0.419   2.719   1.617  0.0822  0.1415  0.2874
  761SOL     OW 3041   0.653   2.829   1.542  0.2996  0.4654  0.1071
  761SOL    HW2 3042   0.670   2.921   1.562 -0.4339  0.9914 -1.6164
  761SOL    HW3 3043   0.671   2.821   1.449 -0.8087 -0.8620 -0.0019
  761SOL    MW4 3044   0.657   2.840   1.533  0.0566  0.3597 -0.1347
  762SOL     OW 3045   0.666   3.092   1.591 -0.4702  0.2596  0.3781
  762SOL    HW2 3046   0.737   3.144   1.554 -1.0041  1.5413  1.1312
  762SOL    HW3 3047   0.587   3.142   1.572 -1.0690 -0.6489  0.4594
  762SOL    MW4 3048   0.665   3.105   1.583 -0.6197  0.3088  0.4882
  763SOL     OW 3049   0.455   3.230   1.515 -0.4918  0.3158 -0.6291
  763SOL    HW2 3050   0.393   3.159   1.531  0.8535 -0.6358  0.5698
  763SOL    HW3 3051   0.464   3.232   1.420 -2.7153  0.8165 -0.8499
  763SOL    MW4 3052   0.448   3.221   1.505 -0.6077  0.2563 -0.5001
  764SOL     OW 3053   0.473   3.485   1.627 -0.2503 -0.2449  0.1594
  764SOL    HW2 3054   0.455   3.400   1.589  1.0249  0.1774 -1.4585
  764SOL    HW3 3055   0.400   3.540   1.599 -0.4211 -0.4757  0.1500
  764SOL    MW4 3056   0.461   3.481   1.618 -0.1046 -0.2196 -0.0553
  765SOL     OW 3057   0.700   3.613   1.515  0.0795 -0.0301 -0.0334
  765SOL    HW2 3058   0.780   3.575   1.551 -0.7008 -2.3575 -0.6742
  765SOL    HW3 3059   0.630   3.556   1.547 -1.0939  0.7050 -1.2524
  765SOL    MW4 3060   0.701   3.600   1.524 -0.1783 -0.2402 -0.2788
  766SOL     OW 3061   0.689   3.874   1.592  0.1363 -0.0597 -0.2766
  766SOL    HW2 3062   0.766   3.914   1.552 -0.3553 -0.0760 -1.2493
  766SOL    HW3 3063   0.700   3.780   1.576  0.3902 -0.1585  0.4373
  766SOL    MW4 3064   0.701   3.867   1.585  0.1049 -0.0749 -0.3107
  767SOL     OW 3065   0.453   4.012   1.534  0.0586 -0.2435 -0.5369
  767SOL    HW2 3066   0.522   3.955   1.568 -1.2315 -1.4063  0.2069
  767SOL    HW3 3067   0.450   3.993   1.440 -1.5678 -2.8137 -0.0357
  767SOL    MW4 3068   0.462   4.002   1.526 -0.3262 -0.7360 -0.3726
  768SOL     OW 3069   0.439   4.268   1.620  0.2415  0.4984  0.5382
  768SOL    HW2 3070   0.456   4.179   1.592 -0.8109  0.1599  0.9508
  768SOL    HW3 3071   0.356   4.292   1.577  0.5489  1.2960  0.3735
  768SOL    MW4 3072   0.430   4.260   1.611  0.1432  0.5590  0.5709
  769SOL     OW 3073   0.645   4.438   1.516 -0.2654 -0.2541 -0.1446
  769SOL    HW2 3074   0.562   4.391   1.528 -0.2426  0.0935  1.4777
  769SOL    HW3 3075   0.632   4.521   1.562  0.2803  0.6440 -1.5850
  769SOL    MW4 3076   0.632   4.443   1.524 -0.1904 -0.0897 -0.1206
  770SOL     OW 3077   1.096   4.666   1.603 -0.4437  0.1920  0.2278
  770SOL    HW2 3078   1.087   4.661   1.698 -0.7424 -0.1434  0.1809
  770SOL    HW3 3079   1.182   4.706   1.589 -0.3126  0.0493  0.6331
  770SOL    MW4 3080   1.106   4.671   1.614 -0.4658  0.1289  0.2751
  771SOL     OW 3081   0.862   0.107   1.513 -0.2093  0.5722 -0.0053
  771SOL    HW2 3082   0.877   0.194   1.550  1.8491 -0.0329  0.7090
  771SOL    HW3 3083   0.931   0.053   1.552 -0.5193 -1.0265 -1.6047
  771SOL    MW4 3084   0.873   0.111   1.523  0.0214  0.2814 -0.1221
  772SOL     OW 3085   0.870   0.360   1.599 -0.0404 -0.2323 -0.6961
  772SOL    HW2 3086   0.873   0.366   1.695  1.9485  0.4537 -0.7715
  772SOL    HW3 3087   0.793   0.410   1.574 -0.0455  0.3732  0.4934
  772SOL    MW4 3088   0.861   0.367   1.609  0.2213 -0.0619 -0.5491
  773SOL     OW 3089   1.123   0.465   1.534 -0.4389 -0.0486  0.1536
  773SOL    HW2 3090   1.122   0.560   1.545 -1.8766 -0.2246  1.7987
  773SOL    HW3 3091   1.047   0.435   1.584  1.1465 -2.2397  1.3338
  773SOL    MW4 3092   1.113   0.474   1.542 -0.4194 -0.3609  0.5264
  774SOL     OW 3093   1.163   0.744   1.591  0.0539  0.3724 -0.1104
  774SOL    HW2 3094   1.164   0.749   1.687 -1.3414  1.2404 -0.1145
  774SOL    HW3 3095   1.227   0.809   1.563  1.8692 -1.2368  0.2473
  774SOL    MW4 3096   1.171   0.753   1.600  0.1094  0.2746 -0.0638
  775SOL     OW 3097   0.884   0.854   1.468  0.2202 -0.1275  0.4121
  775SOL    HW2 3098   0.968   0.807   1.472  0.6340  0.4558 -1.0896
  775SOL    HW3 3099   0.864   0.858   1.374 -1.1251  0.3756  0.7237
  775SOL    MW4 3100   0.893   0.848   1.456  0.0973  0.0158  0.2550
  776SOL     OW 3101   0.909   1.120   1.569  1.0027  0.3930 -0.0439
  776SOL    HW2 3102   0.905   1.027   1.547 -0.7891  0.6246 -0.8129
  776SOL    HW3 3103   0.822   1.154   1.545  2.1807  2.6140 -1.3864
  776SOL    MW4 3104   0.897   1.112   1.563  0.9218  0.7166 -0.3225
  777SOL     OW 3105   1.112   1.274   1.470 -0.4059 -0.0276  0.1209
  777SOL    HW2 3106   1.197   1.238   1.497 -0.4892  0.5677  1.1888
  777SOL    HW3 3107   1.047   1.217   1.511 -0.5294  0.5001  0.6658
  777SOL    MW4 3108   1.115   1.262   1.479 -0.4332  0.1206  0.3337
  778SOL     OW 3109   1.110   1.513   1.610  0.0352  0.1567  0.0522
  778SOL    HW2 3110   1.183   1.552   1.562  0.0262  0.8722  0.6199
  778SOL    HW3 3111   1.104   1.424   1.575  0.9881  0.1869 -0.2106
  778SOL    MW4 3112   1.119   1.506   1.599  0.1598  0.2551  0.0924
  779SOL     OW 3113   0.889   1.662   1.513 -0.2619  0.1504 -0.2162
  779SOL    HW2 3114   0.968   1.613   1.534 -0.5844 -0.9238 -1.4473
  779SOL    HW3 3115   0.872   1.642   1.421 -2.3280 -0.1498  0.2066
  779SOL    MW4 3116   0.897   1.653   1.504 -0.5770 -0.0309 -0.3228
  780SOL     OW 3117   0.894   1.927   1.590 -0.4407 -0.3187  0.2486
  780SOL    HW2 3118   0.981   1.955   1.564 -0.3249  0.0761  1.0473
  780SOL    HW3 3119   0.892   1.833   1.571 -0.1567 -0.1557 -0.6084
  780SOL    MW4 3120   0.905   1.918   1.584 -0.3879 -0.2451  0.2409
  781SOL     OW 3121   1.125   2.041   1.528  0.1245 -0.9762  0.3395
  781SOL    HW2 3122   1.210   2.005   1.555  0.3140 -0.4653  0.4254
  781SOL    HW3 3123   1.125   2.130   1.563  0.6137 -0.0941 -1.8515
  781SOL    MW4 3124   1.137   2.048   1.537  0.2141 -0.7924  0.0617
  782SOL     OW 3125   1.146   2.296   1.638 -0.1462  0.0771  0.0784
  782SOL    HW2 3126   1.218   2.350   1.603  0.2925 -0.6485 -0.1474
  782SOL    HW3 3127   1.068   2.327   1.591  0.5448 -1.3327 -2.0395
  782SOL    MW4 3128   1.145   2.307   1.627  0.0028 -0.2046 -0.2308
  783SOL     OW 3129   0.931   2.412   1.523  0.4081  0.3056  0.1399
  783SOL    HW2 3130   0.938   2.503   1.554 -0.0047 -0.3336  2.2114
  783SOL    HW3 3131   0.845   2.383   1.555  1.2859 -1.3613  1.0289
  783SOL    MW4 3132   0.920   2.420   1.532  0.4694  0.0014  0.5305
  784SOL     OW 3133   0.891   2.691   1.589 -0.2864  0.1186  0.1887
  784SOL    HW2 3134   0.906   2.679   1.683 -0.4231  0.0001  0.1955
  784SOL    HW3 3135   0.805   2.733   1.583 -1.1681 -1.6705  0.0312
  784SOL    MW4 3136   0.882   2.695   1.601 -0.4207 -0.1331  0.1688
  785SOL     OW 3137   1.117   2.852   1.491  0.7512 -0.5699  0.2023
  785SOL    HW2 3138   1.109   2.939   1.532 -1.9537 -0.0821 -1.2106
  785SOL    HW3 3139   1.050   2.799   1.534  0.7035 -1.2424 -0.6890
  785SOL    MW4 3140   1.107   2.857   1.502  0.3880 -0.5943 -0.1017
  786SOL     OW 3141   1.060   3.107   1.583 -0.3948 -0.1047  0.3824
  786SOL    HW2 3142   1.059   3.105   1.678  0.3839 -0.3972  0.3890
  786SOL    HW3 3143   1.142   3.151   1.560 -0.4004 -0.3589 -0.1525
  786SOL    MW4 3144   1.071   3.112   1.592 -0.2928 -0.1768  0.3127
  787SOL     OW 3145   0.866   3.269   1.497  0.0410 -0.2672 -0.3973
  787SOL    HW2 3146   0.925   3.203   1.534 -1.0720 -1.7541 -1.1970
  787SOL    HW3 3147   0.887   3.271   1.404  0.1289  0.5719 -0.3592
  787SOL    MW4 3148   0.877   3.261   1.490 -0.0943 -0.3526 -0.4978
  788SOL     OW 3149   0.909   3.499   1.634 -0.3741  0.1049  0.4092
  788SOL    HW2 3150   0.983   3.545   1.596  0.1561  0.3879  1.7421
  788SOL    HW3 3151   0.901   3.418   1.582 -0.1676  0.8305 -0.7615
  788SOL    MW4 3152   0.917   3.494   1.622 -0.2769  0.2380  0.4306
  789SOL     OW 3153   1.116   3.613   1.477  0.1065 -0.4905 -0.2733
  789SOL    HW2 3154   1.202   3.574   1.492 -0.4918 -1.3770  0.9582
  789SOL    HW3 3155   1.116   3.637   1.384  2.0882  0.5572 -0.0204
  789SOL    MW4 3156   1.127   3.611   1.467  0.2890 -0.4692 -0.0775
  790SOL     OW 3157   1.108   3.858   1.595  0.3861  0.5572 -0.1717
  790SOL    HW2 3158   1.191   3.883   1.554  0.7898  1.7282  1.2974
  790SOL    HW3 3159   1.095   3.767   1.570  1.1617  0.9285 -1.9777
  790SOL    MW4 3160   1.118   3.850   1.586  0.5417  0.7607 -0.2162
  791SOL     OW 3161   0.903   4.008   1.477 -0.2764  0.1090  0.1327
  791SOL    HW2 3162   0.892   4.095   1.516  0.1160 -0.3614  1.3240
  791SOL    HW3 3163   0.974   3.969   1.527  0.4905 -0.3920 -1.3018
  791SOL    MW4 3164   0.911   4.014   1.489 -0.1235 -0.0191  0.1006
  792SOL     OW 3165   0.857   4.260   1.568 -0.5223 -0.1542  0.1200
  792SOL    HW2 3166   0.870   4.238   1.661 -0.3557  0.3011  0.2028
  792SOL    HW3 3167   0.774   4.306   1.565 -1.1816 -1.3253 -0.1429
  792SOL    MW4 3168   0.848   4.263   1.580 -0.5873 -0.2487  0.0962
  793SOL     OW 3169   1.106   4.406   1.508 -0.1408 -0.0519 -0.0690
  793SOL    HW2 3170   1.029   4.362   1.544  1.0892 -2.4991 -0.2718
  793SOL    HW3 3171   1.106   4.493   1.547 -2.4964 -0.3512  0.6330
  793SOL    MW4 3172   1.096   4.412   1.518 -0.2893 -0.4142 -0.0031
  794SOL     OW 3173   1.598   4.626   1.618 -0.4031 -0.0017 -0.0667
  794SOL    HW2 3174   1.599   4.646   1.711 -2.3508 -0.1767  0.0061
  794SOL    HW3 3175   1.520   4.671   1.585  0.6456  0.6423 -1.7475
  794SOL    MW4 3176   1.588   4.635   1.626 -0.5217  0.0601 -0.2788
  795SOL     OW 3177   1.354   0.094   1.532 -0.1170  0.1973 -0.7725
  795SOL    HW2 3178   1.375   0.187   1.540 -0.7307  0.3304 -0.6842
  795SOL    HW3 3179   1.346   0.079   1.438  3.7861 -0.6272 -1.0537
  795SOL    MW4 3180   1.356   0.104   1.521  0.3170  0.1061 -0.7979
  796SOL     OW 3181   1.374   0.356   1.593  0.2979 -1.0483 -0.1486
  796SOL    HW2 3182   1.436   0.402   1.537  0.5824 -1.3588 -0.0882
  796SOL    HW3 3183   1.291   0.402   1.579  0.5607 -0.5664 -0.1463
  796SOL    MW4 3184   1.371   0.368   1.584  0.3701 -1.0257 -0.1403
  797SOL     OW 3185   1.562   0.522   1.476 -0.1085  0.1431  0.0934
  797SOL    HW2 3186   1.633   0.473   1.518  1.7146  1.3148 -1.5561
  797SOL    HW3 3187   1.558   0.486   1.387 -0.6115  1.0868 -0.2632
  797SOL    MW4 3188   1.571   0.511   1.470  0.0657  0.4222 -0.1713
  798SOL     OW 3189   1.592   0.760   1.585  0.0169  0.0690  0.3637
  798SOL    HW2 3190   1.592   0.740   1.678  0.8158 -0.2326  0.2998
  798SOL    HW3 3191   1.580   0.675   1.542  0.9864  0.0231  0.1611
  798SOL    MW4 3192   1.590   0.746   1.591  0.2502  0.0231  0.3285
  799SOL     OW 3193   1.351   0.914   1.504  0.3953 -0.1585  0.2174
  799SOL    HW2 3194   1.434   0.874   1.530  1.2209  1.3734  0.0074
  799SOL    HW3 3195   1.356   0.919   1.408  1.3683  2.6385  0.3776
  799SOL    MW4 3196   1.363   0.909   1.495  0.6326  0.4127  0.2108
  800SOL     OW 3197   1.352   1.194   1.573  0.1971 -0.0848 -0.2474
  800SOL    HW2 3198   1.360   1.193   1.668  0.0098  1.7539 -0.2086
  800SOL    HW3 3199   1.344   1.101   1.549 -0.9302 -0.4828  1.6094
  800SOL    MW4 3200   1.352   1.182   1.582  0.0237  0.1053  0.0027
  801SOL     OW 3201   1.585   1.299   1.475  0.2551  0.3749  0.2471
  801SOL    HW2 3202   1.512   1.249   1.512  1.3725 -1.0755  0.5324
  801SOL    HW3 3203   1.570   1.295   1.380 -0.3815  0.6150  0.3356
  801SOL    MW4 3204   1.573   1.292   1.467  0.3186  0.2152  0.2964
  802SOL     OW 3205   1.577   1.565   1.580 -0.0814  0.3265 -0.1053
  802SOL    HW2 3206   1.578   1.550   1.675  1.1918 -1.5078 -0.3762
  802SOL    HW3 3207   1.584   1.477   1.543  0.7213  1.1443 -1.8951
  802SOL    MW4 3208   1.578   1.551   1.588  0.1925  0.1924 -0.3772
  803SOL     OW 3209   1.314   1.641   1.485 -0.2393  0.3310 -0.2319
  803SOL    HW2 3210   1.400   1.609   1.512 -0.6195 -0.5769 -0.0837
  803SOL    HW3 3211   1.325   1.666   1.393  0.0741 -0.1862 -0.3351
  803SOL    MW4 3212   1.327   1.640   1.476 -0.2481  0.1430 -0.2260
  804SOL     OW 3213   1.366   1.917   1.583  0.0890 -0.0756  0.5125
  804SOL    HW2 3214   1.372   1.905   1.678 -2.5292 -1.2103  0.5730
  804SOL    HW3 3215   1.338   1.832   1.550  2.1644 -0.0555 -1.4551
  804SOL    MW4 3216   1.363   1.904   1.591  0.0174 -0.2227  0.2609
  805SOL     OW 3217   1.587   2.105   1.507 -0.2149  0.1588  0.3661
  805SOL    HW2 3218   1.507   2.054   1.521  0.7687 -1.4270  0.3393
  805SOL    HW3 3219   1.601   2.102   1.412 -0.3725  0.8210  0.3219
  805SOL    MW4 3220   1.578   2.098   1.496 -0.1059  0.0370  0.3567
  806SOL     OW 3221   1.602   2.347   1.649 -0.3904 -0.0095 -0.0879
  806SOL    HW2 3222   1.673   2.390   1.602 -0.4722  0.0535 -0.1533
  806SOL    HW3 3223   1.598   2.259   1.610  0.3323 -0.3638  0.6215
  806SOL    MW4 3224   1.611   2.341   1.638 -0.3058 -0.0479 -0.0029
  807SOL     OW 3225   1.360   2.423   1.525  0.0125  0.1319  0.0002
  807SOL    HW2 3226   1.344   2.517   1.531  0.7338  0.4294 -2.3045
  807SOL    HW3 3227   1.432   2.407   1.586  0.8501  1.3359 -0.6509
  807SOL    MW4 3228   1.367   2.433   1.534  0.2182  0.3300 -0.3898
  808SOL     OW 3229   1.313   2.696   1.588  0.4573  0.2951 -0.3771
  808SOL    HW2 3230   1.397   2.732   1.559  0.9276 -0.0047  0.5942
  808SOL    HW3 3231   1.248   2.759   1.556  1.0127  0.3171 -1.4890
  808SOL    MW4 3232   1.316   2.709   1.580  0.5927  0.2585 -0.3956
  809SOL     OW 3233   1.546   2.821   1.531 -0.5300  0.1012  0.5807
  809SOL    HW2 3234   1.629   2.775   1.547  0.6967  1.9675 -0.2127
  809SOL    HW3 3235   1.536   2.820   1.436 -1.7910 -0.7276  0.7158
  809SOL    MW4 3236   1.556   2.815   1.521 -0.5345  0.2381  0.4939
  810SOL     OW 3237   1.546   3.096   1.618 -0.6472  0.0464 -0.0330
  810SOL    HW2 3238   1.625   3.132   1.577  0.0068 -0.0022  1.1468
  810SOL    HW3 3239   1.543   3.005   1.590 -0.5486  0.1779 -0.4689
  810SOL    MW4 3240   1.556   3.089   1.609 -0.5479  0.0574  0.0651
  811SOL     OW 3241   1.306   3.214   1.473  0.4277 -0.2936  0.0419
  811SOL    HW2 3242   1.304   3.300   1.514 -1.3196  0.6096 -1.8425
  811SOL    HW3 3243   1.381   3.170   1.513  1.7012  2.2976  0.5946
  811SOL    MW4 3244   1.315   3.220   1.484  0.3652  0.1675 -0.1338
  812SOL     OW 3245   1.320   3.463   1.568 -0.2579  0.0521  0.1230
  812SOL    HW2 3246   1.324   3.468   1.664  1.3129 -0.5336  0.1018
  812SOL    HW3 3247   1.392   3.518   1.538  1.3015 -2.3387 -0.6373
  812SOL    MW4 3248   1.330   3.471   1.577  0.1551 -0.3406  0.0199
  813SOL     OW 3249   1.552   3.609   1.500  0.3772  0.0750  0.5683
  813SOL    HW2 3250   1.569   3.699   1.530  1.7477 -0.3232  1.0679
  813SOL    HW3 3251   1.556   3.614   1.405 -0.4014  0.7022  0.5674
  813SOL    MW4 3252   1.555   3.622   1.492  0.4553  0.1053  0.6341
  814SOL     OW 3253   1.588   3.868   1.579  0.2606  0.6087  0.3591
  814SOL    HW2 3254   1.589   3.878   1.674  0.8314 -1.4614  0.5752
  814SOL    HW3 3255   1.503   3.903   1.552 -0.9665 -1.1287  1.8990
  814SOL    MW4 3256   1.577   3.874   1.588  0.1740  0.1064  0.5908
  815SOL     OW 3257   1.338   3.981   1.496 -0.3567  0.2256 -0.4959
  815SOL    HW2 3258   1.340   4.067   1.539  0.3213  0.9646 -1.9912
  815SOL    HW3 3259   1.338   4.001   1.403 -0.5103 -1.4087 -0.8538
  815SOL    MW4 3260   1.338   3.995   1.489 -0.2875  0.1075 -0.7404
  816SOL     OW 3261   1.326   4.235   1.619 -0.5361  0.2134  0.2621
  816SOL    HW2 3262   1.395   4.286   1.577  0.4493  0.2690  1.9205
  816SOL    HW3 3263   1.246   4.285   1.602  0.1701  1.4165  0.4006
  816SOL    MW4 3264   1.324   4.248   1.611 -0.3129  0.3795  0.4992
  817SOL     OW 3265   1.520   4.398   1.518 -0.0956  0.6082  0.2404
  817SOL    HW2 3266   1.597   4.343   1.530  0.7659  1.3139 -1.7339
  817SOL    HW3 3267   1.543   4.481   1.559 -0.6287  0.1322  1.5007
  817SOL    MW4 3268   1.533   4.402   1.525 -0.0523  0.6385  0.1462
  818SOL     OW 3269   2.042   4.644   1.621 -0.1256 -0.1675  0.3711
  818SOL    HW2 3270   2.040   4.634   1.716 -0.0701  0.2590  0.4177
  818SOL    HW3 3271   1.970   4.705   1.602  0.2734  0.2548  0.2063
  818SOL    MW4 3272   2.032   4.651   1.631 -0.0656 -0.0555  0.3555
  819SOL     OW 3273   1.814   0.093   1.525 -0.4186 -0.1986  0.0983
  819SOL    HW2 3274   1.738   0.037   1.543 -1.0065  0.6552  0.3224
  819SOL    HW3 3275   1.814   0.103   1.430 -0.3627 -0.5208  0.0657
  819SOL    MW4 3276   1.804   0.087   1.515 -0.4888 -0.1284  0.1236
  820SOL     OW 3277   1.766   0.360   1.585 -0.2035  0.2758 -0.4806
  820SOL    HW2 3278   1.845   0.396   1.546 -1.2434  1.7749 -1.2814
  820SOL    HW3 3279   1.779   0.265   1.585  1.9707  0.5533  0.2921
  820SOL    MW4 3280   1.778   0.352   1.580 -0.0538  0.5102 -0.4843
  821SOL     OW 3281   2.008   0.459   1.498  0.8175 -0.3568  0.2245
  821SOL    HW2 3282   2.089   0.418   1.530  0.6358  0.1611  1.3653
  821SOL    HW3 3283   2.022   0.553   1.512 -1.0015 -0.4306  2.8603
  821SOL    MW4 3284   2.021   0.466   1.504  0.5535 -0.2982  0.7228
  822SOL     OW 3285   2.065   0.729   1.541  0.1568 -0.2595 -0.4458
  822SOL    HW2 3286   2.143   0.784   1.532  0.0267 -0.1749 -1.0754
  822SOL    HW3 3287   1.992   0.789   1.524 -0.1596  0.1074  1.9939
  822SOL    MW4 3288   2.066   0.744   1.538  0.0979 -0.1999 -0.2070
  823SOL     OW 3289   1.850   0.886   1.517 -0.6246 -0.6343 -0.5659
  823SOL    HW2 3290   1.842   0.981   1.530 -0.9965 -0.7815  0.3046
  823SOL    HW3 3291   1.781   0.849   1.571 -2.0864 -1.2864 -2.8354
  823SOL    MW4 3292   1.840   0.894   1.526 -0.8665 -0.7398 -0.7505
  824SOL     OW 3293   1.839   1.167   1.547  0.1886  0.3902 -0.2748
  824SOL    HW2 3294   1.905   1.233   1.524 -0.4581  0.8026 -0.9891
  824SOL    HW3 3295   1.756   1.205   1.517 -0.1986 -0.7192 -0.6453
  824SOL    MW4 3296   1.837   1.181   1.540  0.0522  0.2982 -0.4180
  825SOL     OW 3297   2.058   1.343   1.467  0.0612 -0.0003  0.3962
  825SOL    HW2 3298   2.058   1.432   1.501  1.3613 -0.2386  1.0317
  825SOL    HW3 3299   2.051   1.354   1.372  0.7701  0.8077  0.4297
  825SOL    MW4 3300   2.057   1.356   1.459  0.3263  0.0748  0.4845
  826SOL     OW 3301   2.023   1.585   1.608 -0.6961 -0.2094 -0.0084
  826SOL    HW2 3302   2.095   1.640   1.576 -0.2470 -1.1182 -0.5910
  826SOL    HW3 3303   1.944   1.633   1.583 -0.3098  0.1666 -0.5278
  826SOL    MW4 3304   2.022   1.598   1.600 -0.5859 -0.2797 -0.1538
  827SOL     OW 3305   1.793   1.704   1.512 -0.3742  0.3475 -0.1674
  827SOL    HW2 3306   1.717   1.655   1.543 -1.3211  1.6122 -0.4490
  827SOL    HW3 3307   1.797   1.686   1.418  0.4929 -0.7876  0.0684
  827SOL    MW4 3308   1.784   1.696   1.504 -0.3848  0.3646 -0.1734
  828SOL     OW 3309   1.794   1.974   1.609  0.0901 -0.1468 -0.0375
  828SOL    HW2 3310   1.803   1.893   1.559  1.6599  0.4808 -0.8054
  828SOL    HW3 3311   1.719   2.019   1.571  0.1120 -0.5657 -0.5710
  828SOL    MW4 3312   1.785   1.969   1.598  0.3001 -0.1193 -0.2092
  829SOL     OW 3313   2.032   2.082   1.496  0.1172  0.7075  0.0405
  829SOL    HW2 3314   2.097   2.019   1.528  0.2074  0.2058 -1.1064
  829SOL    HW3 3315   1.948   2.047   1.527  0.1814  0.1078 -0.4553
  829SOL    MW4 3316   2.029   2.069   1.505  0.1376  0.5622 -0.1762
  830SOL     OW 3317   2.021   2.334   1.628 -0.0061 -0.3423  0.0082
  830SOL    HW2 3318   2.014   2.327   1.723  2.7315 -0.8580  0.2028
  830SOL    HW3 3319   2.030   2.244   1.598  1.1223 -0.0533 -0.5492
  830SOL    MW4 3320   2.021   2.321   1.637  0.5040 -0.3722 -0.0397
  831SOL     OW 3321   1.797   2.450   1.500 -0.6023  0.6464  0.2005
  831SOL    HW2 3322   1.882   2.409   1.515 -0.5173  0.8512  0.2728
  831SOL    HW3 3323   1.788   2.454   1.405 -1.8752 -2.1871  0.1486
  831SOL    MW4 3324   1.807   2.445   1.489 -0.7590  0.2996  0.2032
  832SOL     OW 3325   1.797   2.697   1.635 -0.3589  0.0975  0.1063
  832SOL    HW2 3326   1.873   2.732   1.588  0.1099  0.4449  1.1109
  832SOL    HW3 3327   1.779   2.613   1.592  0.2528  0.2695 -0.4966
  832SOL    MW4 3328   1.805   2.690   1.623 -0.2164  0.1660  0.1593
  833SOL     OW 3329   2.019   2.829   1.521  0.2420  0.1667 -0.4179
  833SOL    HW2 3330   2.002   2.922   1.534  0.8012  0.4574 -1.7083
  833SOL    HW3 3331   2.017   2.818   1.426 -2.7236 -1.6742 -0.2201
  833SOL    MW4 3332   2.016   2.840   1.510 -0.0755 -0.0378 -0.5621
  834SOL     OW 3333   2.008   3.087   1.620 -0.2309  0.0804  0.2570
  834SOL    HW2 3334   2.005   3.081   1.715  0.7430 -0.0178  0.2865
  834SOL    HW3 3335   2.093   3.127   1.601 -1.6042  2.7763 -0.4453
  834SOL    MW4 3336   2.019   3.092   1.630 -0.2836  0.4232  0.1683
  835SOL     OW 3337   1.771   3.224   1.495  0.1962 -0.2463 -0.3274
  835SOL    HW2 3338   1.769   3.317   1.517 -3.1517 -0.4072  0.2283
  835SOL    HW3 3339   1.848   3.190   1.542  0.8848  2.0257  0.2389
  835SOL    MW4 3340   1.781   3.232   1.504 -0.1546  0.0323 -0.1793
  836SOL     OW 3341   1.792   3.484   1.575 -0.1081 -0.1036  0.3122
  836SOL    HW2 3342   1.778   3.480   1.670  1.2342  0.6460  0.5554
  836SOL    HW3 3343   1.709   3.516   1.540 -1.0694 -1.6691  1.0949
  836SOL    MW4 3344   1.780   3.488   1.583 -0.0579 -0.2112  0.4475
  837SOL     OW 3345   2.010   3.644   1.520  0.0887 -0.3609 -0.0059
  837SOL    HW2 3346   2.083   3.598   1.562 -0.0824 -0.9706 -0.3757
  837SOL    HW3 3347   1.932   3.596   1.546 -0.0842 -0.3356 -0.4719
  837SOL    MW4 3348   2.010   3.632   1.529  0.0433 -0.4380 -0.1162
  838SOL     OW 3349   2.026   3.873   1.669  0.4918  0.1804  0.1017
  838SOL    HW2 3350   2.108   3.911   1.638  0.6420 -0.3438 -0.1630
  838SOL    HW3 3351   2.025   3.785   1.630  0.9699 -0.7207  2.0295
  838SOL    MW4 3352   2.037   3.866   1.660  0.5747 -0.0076  0.3211
  839SOL     OW 3353   1.812   4.009   1.503  0.3670  0.6636  0.1509
  839SOL    HW2 3354   1.891   3.961   1.529  0.9317  2.7206  2.3855
  839SOL    HW3 3355   1.740   3.953   1.533  0.8986 -1.3095 -2.0493
  839SOL    MW4 3356   1.813   3.995   1.510  0.5116  0.6747  0.1554
  840SOL     OW 3357   1.762   4.262   1.588  0.7448 -0.0654 -0.0850
  840SOL    HW2 3358   1.826   4.315   1.541  0.8520  0.7680  0.9588
  840SOL    HW3 3359   1.782   4.172   1.564  1.3252  0.2981 -0.9654
  840SOL    MW4 3360   1.773   4.257   1.579  0.8355  0.0925 -0.0635
  841SOL     OW 3361   1.993   4.409   1.516 -0.1127  0.0580  0.2822
  841SOL    HW2 3362   2.050   4.349   1.564  0.8256  0.1901 -0.6502
  841SOL    HW3 3363   2.011   4.494   1.555 -1.2757 -0.2260  1.4515
  841SOL    MW4 3364   2.003   4.412   1.528 -0.1424  0.0379  0.3134
  842SOL     OW 3365   2.494   4.646   1.594  0.1002 -0.1426  0.1530
  842SOL    HW2 3366   2.487   4.662   1.688 -0.9886 -3.0361  0.6275
  842SOL    HW3 3367   2.419   4.691   1.555 -0.3467 -0.2656  0.8650
  842SOL    MW4 3368   2.484   4.654   1.601 -0.1024 -0.5406  0.3096
  843SOL     OW 3369   2.271   0.111   1.491 -0.2110 -0.2409 -0.1168
  843SOL    HW2 3370   2.195   0.059   1.519 -0.1690 -0.7605 -0.9556
  843SOL    HW3 3371   2.255   0.128   1.398  0.9374 -0.7578 -0.4160
  843SOL    MW4 3372   2.259   0.107   1.483 -0.0539 -0.3776 -0.2670
  844SOL     OW 3373   2.245   0.373   1.564 -0.0200  0.3886  0.4577
  844SOL    HW2 3374   2.244   0.378   1.660  1.4269 -0.8113  0.5472
  844SOL    HW3 3375   2.273   0.284   1.544 -0.1026  0.6876 -1.0907
  844SOL    MW4 3376   2.248   0.362   1.574  0.1600  0.2697  0.2652
  845SOL     OW 3377   2.444   0.536   1.478  0.1129 -0.0053 -0.3537
  845SOL    HW2 3378   2.519   0.477   1.493 -0.8310 -0.7458  1.6715
  845SOL    HW3 3379   2.367   0.483   1.498 -0.9884  0.7064 -2.5878
  845SOL    MW4 3380   2.444   0.521   1.483 -0.1569 -0.0091 -0.3812
  846SOL     OW 3381   2.494   0.736   1.669  0.0295  0.7395  0.1585
  846SOL    HW2 3382   2.425   0.802   1.662  0.9735  1.7011 -0.2047
  846SOL    HW3 3383   2.470   0.669   1.606 -1.3951  0.3026  1.1339
  846SOL    MW4 3384   2.482   0.736   1.660 -0.0339  0.8088  0.2393
  847SOL     OW 3385   2.295   0.893   1.512  0.1589  0.1839  0.2526
  847SOL    HW2 3386   2.261   0.982   1.527  1.8149  0.8553  0.1035
  847SOL    HW3 3387   2.319   0.892   1.419 -0.3464 -0.5965  0.1285
  847SOL    MW4 3388   2.293   0.905   1.502  0.3107  0.1695  0.2166
  848SOL     OW 3389   2.238   1.143   1.563 -0.0148 -0.0544 -0.0298
  848SOL    HW2 3390   2.237   1.132   1.658 -0.3664 -0.6647 -0.1074
  848SOL    HW3 3391   2.167   1.205   1.545 -0.5433 -0.6501  0.0123
  848SOL    MW4 3392   2.229   1.150   1.573 -0.1309 -0.2135 -0.0345
  849SOL     OW 3393   2.481   1.292   1.513 -0.2933  0.4063 -0.0984
  849SOL    HW2 3394   2.398   1.252   1.541 -0.6069  1.1842  0.1150
  849SOL    HW3 3395   2.479   1.286   1.417 -0.1402 -0.4649 -0.0494
  849SOL    MW4 3396   2.469   1.286   1.504 -0.3145  0.3940 -0.0638
  850SOL     OW 3397   2.468   1.568   1.594  0.1479 -0.1957 -0.6895
  850SOL    HW2 3398   2.552   1.604   1.564  0.6865 -0.7413  0.1543
  850SOL    HW3 3399   2.470   1.477   1.565  0.2675 -0.4731  0.1803
  850SOL    MW4 3400   2.479   1.561   1.586  0.2347 -0.3043 -0.4634
  851SOL     OW 3401   2.251   1.700   1.488 -0.2158  0.0356 -0.2511
  851SOL    HW2 3402   2.333   1.657   1.515 -0.5864 -0.1632  0.5860
  851SOL    HW3 3403   2.251   1.694   1.392  0.7232 -0.0108 -0.2500
  851SOL    MW4 3404   2.262   1.693   1.479 -0.1408  0.0033 -0.1405
  852SOL     OW 3405   2.237   1.944   1.614 -0.3378  0.1318 -0.0924
  852SOL    HW2 3406   2.253   1.932   1.707  0.5639  1.4508 -0.0666
  852SOL    HW3 3407   2.255   1.859   1.575  1.7710  0.2232  0.6140
  852SOL    MW4 3408   2.241   1.931   1.621  0.0594  0.3178  0.0042
  853SOL     OW 3409   2.457   2.095   1.495 -0.5244 -0.0804 -0.8693
  853SOL    HW2 3410   2.378   2.053   1.528  0.2143  0.7372  2.0177
  853SOL    HW3 3411   2.445   2.095   1.400 -2.3410 -3.1786 -0.7159
  853SOL    MW4 3412   2.445   2.089   1.486 -0.6666 -0.3813 -0.4682
  854SOL     OW 3413   2.434   2.357   1.595  0.7821  0.5204 -0.2743
  854SOL    HW2 3414   2.465   2.355   1.686  0.1285  1.9489  0.0080
  854SOL    HW3 3415   2.434   2.266   1.567  0.7914  0.0393  1.2440
  854SOL    MW4 3416   2.438   2.345   1.603  0.6971  0.6454 -0.0367
  855SOL     OW 3417   2.220   2.470   1.490 -0.1608 -0.3264 -0.0905
  855SOL    HW2 3418   2.304   2.433   1.518 -0.2390 -0.1967  0.3275
  855SOL    HW3 3419   2.156   2.430   1.549 -0.5503 -1.3587 -1.1960
  855SOL    MW4 3420   2.223   2.459   1.502 -0.2225 -0.4455 -0.1812
  856SOL     OW 3421   2.225   2.712   1.633  0.2332  0.2512  0.2392
  856SOL    HW2 3422   2.230   2.631   1.582  0.8826  0.1003  0.5359
  856SOL    HW3 3423   2.151   2.760   1.595 -0.7248 -0.8853  0.6667
  856SOL    MW4 3424   2.216   2.708   1.621  0.1925  0.0813  0.3347
  857SOL     OW 3425   2.472   2.799   1.568 -0.3075 -0.0362  0.5171
  857SOL    HW2 3426   2.474   2.891   1.594  1.6974  0.1618 -0.2579
  857SOL    HW3 3427   2.384   2.770   1.589 -0.8038  1.9326  1.2338
  857SOL    MW4 3428   2.461   2.807   1.574 -0.1085  0.2497  0.5094
  858SOL     OW 3429   2.484   3.068   1.631 -0.0567  0.1044 -0.3653
  858SOL    HW2 3430   2.551   3.132   1.604 -0.3607  0.4790 -0.2254
  858SOL    HW3 3431   2.401   3.108   1.606 -0.2988  0.1131  0.4386
  858SOL    MW4 3432   2.482   3.082   1.624 -0.1288  0.1550 -0.2408
  859SOL     OW 3433   2.261   3.234   1.570 -0.7601  0.2591 -0.2719
  859SOL    HW2 3434   2.254   3.328   1.588  1.6015  0.6367 -1.1017
  859SOL    HW3 3435   2.263   3.228   1.474 -0.9792 -0.6422 -0.2233
  859SOL    MW4 3436   2.260   3.246   1.559 -0.4774  0.1900 -0.3750
  860SOL     OW 3437   2.250   3.516   1.623  0.1838 -0.6209  0.4703
  860SOL    HW2 3438   2.264   3.533   1.716  0.6438  0.1666  0.2583
  860SOL    HW3 3439   2.320   3.563   1.579  0.7861 -2.1155 -0.2027
  860SOL    MW4 3440   2.261   3.524   1.629  0.3240 -0.7142  0.3536
  861SOL     OW 3441   2.442   3.612   1.472  0.2358  0.5172 -0.1129
  861SOL    HW2 3442   2.517   3.560   1.501 -0.8966 -1.0150  0.1170
  861SOL    HW3 3443   2.460   3.700   1.504  1.6202  0.0289  0.4976
  861SOL    MW4 3444   2.454   3.617   1.480  0.2690  0.2506 -0.0020
  862SOL     OW 3445   2.455   3.856   1.606  0.1818  0.5146  0.0273
  862SOL    HW2 3446   2.469   3.841   1.700  0.2032 -1.2213 -0.2244
  862SOL    HW3 3447   2.539   3.890   1.575 -0.2511  2.3982  0.8744
  862SOL    MW4 3448   2.468   3.858   1.615  0.1275  0.5341  0.1058
  863SOL     OW 3449   2.243   4.005   1.546  0.1395  0.4559  0.8798
  863SOL    HW2 3450   2.323   3.961   1.574 -0.5518 -1.0486  0.5285
  863SOL    HW3 3451   2.241   3.994   1.451 -0.6367  0.2423  0.9222
  863SOL    MW4 3452   2.253   3.998   1.537 -0.0541  0.2292  0.8390
  864SOL     OW 3453   2.210   4.272   1.630  0.0231  0.0140  0.0623
  864SOL    HW2 3454   2.281   4.330   1.600  1.3513 -2.1210 -1.0482
  864SOL    HW3 3455   2.234   4.186   1.596 -1.8511 -1.2274  1.8023
  864SOL    MW4 3456   2.222   4.268   1.621 -0.0489 -0.4315  0.1453
  865SOL     OW 3457   2.440   4.389   1.518 -0.1135 -0.2501 -0.2903
  865SOL    HW2 3458   2.458   4.480   1.543  0.2660 -0.3654 -0.1436
  865SOL    HW3 3459   2.433   4.392   1.422 -1.2919  0.1397 -0.2094
  865SOL    MW4 3460   2.441   4.402   1.509 -0.2189 -0.2139 -0.2603
  866SOL     OW 3461   2.902   4.626   1.602 -0.2228  0.1737 -0.2648
  866SOL    HW2 3462   2.910   4.636   1.697  1.1358  0.1265 -0.3651
  866SOL    HW3 3463   2.834   4.689   1.577 -0.1014  0.6823  0.6465
  866SOL    MW4 3464   2.894   4.636   1.611 -0.0276  0.2345 -0.1578
  867SOL     OW 3465   2.725   0.135   1.522  0.2204  0.3171 -0.1773
  867SOL    HW2 3466   2.700   0.227   1.536  0.2952  0.3525 -0.2796
  867SOL    HW3 3467   2.645   0.086   1.543  0.1151  0.4198 -0.3324
  867SOL    MW4 3468   2.711   0.141   1.527  0.2164  0.3353 -0.2113
  868SOL     OW 3469   2.643   0.388   1.565  0.2317 -0.0843  0.4355
  868SOL    HW2 3470   2.624   0.397   1.658  0.6251  0.5146  0.4570
  868SOL    HW3 3471   2.726   0.433   1.552 -0.8118  1.6232 -0.5760
  868SOL    MW4 3472   2.652   0.395   1.576  0.1459  0.2200  0.3048
  869SOL     OW 3473   2.878   0.515   1.490 -0.2094  0.2893 -0.4400
  869SOL    HW2 3474   2.902   0.604   1.517 -0.9866  0.7614 -1.2959
  869SOL    HW3 3475   2.879   0.518   1.395  0.1312 -0.7252 -0.4627
  869SOL    MW4 3476   2.881   0.527   1.481 -0.2670  0.2177 -0.5559
  870SOL     OW 3477   2.958   0.759   1.579  0.5117  0.0244  0.1595
  870SOL    HW2 3478   2.953   0.752   1.674  1.2057  2.1406  0.3748
  870SOL    HW3 3479   2.890   0.823   1.556  1.7874  1.1723 -0.5224
  870SOL    MW4 3480   2.948   0.767   1.588  0.7716  0.4551  0.0980
  871SOL     OW 3481   2.705   0.853   1.524  0.5318 -0.6428 -0.4582
  871SOL    HW2 3482   2.634   0.802   1.563 -0.1363 -0.4851 -1.4452
  871SOL    HW3 3483   2.680   0.861   1.432  0.5382  1.6017 -0.2917
  871SOL    MW4 3484   2.692   0.847   1.517  0.4445 -0.3259 -0.5665
  872SOL     OW 3485   2.714   1.149   1.620  0.3949  0.1320  0.1977
  872SOL    HW2 3486   2.697   1.061   1.586  0.6555  0.2247 -0.1728
  872SOL    HW3 3487   2.634   1.198   1.598 -0.1131 -0.2377  1.1808
  872SOL    MW4 3488   2.701   1.144   1.612  0.3622  0.0954  0.2785
  873SOL     OW 3489   2.924   1.325   1.481  0.0861  0.4359  0.3277
  873SOL    HW2 3490   3.007   1.283   1.502 -0.4063 -1.2031 -0.8318
  873SOL    HW3 3491   2.857   1.265   1.516 -0.6269  0.5580 -0.7874
  873SOL    MW4 3492   2.926   1.311   1.488 -0.0730  0.2358  0.0276
  874SOL     OW 3493   2.895   1.577   1.625 -0.1860 -0.2114 -0.1591
  874SOL    HW2 3494   2.819   1.628   1.597 -0.3534 -0.9815 -1.1777
  874SOL    HW3 3495   2.892   1.499   1.570  1.8775  0.1705 -0.8546
  874SOL    MW4 3496   2.885   1.573   1.614  0.0642 -0.2626 -0.3852
  875SOL     OW 3497   2.699   1.718   1.502  0.4223 -0.2671 -0.3229
  875SOL    HW2 3498   2.684   1.810   1.525  0.5191 -0.5686  0.9612
  875SOL    HW3 3499   2.698   1.718   1.406  0.3515  1.0614 -0.3439
  875SOL    MW4 3500   2.697   1.730   1.492  0.4257 -0.1316 -0.1562
  876SOL     OW 3501   2.692   1.964   1.616  0.0695  0.2590 -0.2052
  876SOL    HW2 3502   2.686   1.947   1.710  1.9474 -0.7898 -0.2568
  876SOL    HW3 3503   2.606   1.999   1.593 -1.2231 -1.7108  1.4456
  876SOL    MW4 3504   2.680   1.967   1.626  0.1467 -0.1393  0.0058
  877SOL     OW 3505   2.914   2.083   1.514 -0.0650  0.0887 -0.0405
  877SOL    HW2 3506   2.922   2.171   1.552  0.8166 -0.0169  0.0230
  877SOL    HW3 3507   2.832   2.049   1.551 -0.5273  0.9651 -0.2414
  877SOL    MW4 3508   2.904   2.090   1.524 -0.0097  0.1904 -0.0586
  878SOL     OW 3509   2.943   2.333   1.619 -0.2702  0.7161 -0.1041
  878SOL    HW2 3510   2.943   2.319   1.713 -0.8938 -1.0497 -0.3485
  878SOL    HW3 3511   2.856   2.367   1.599 -0.4842  0.1531 -0.1552
  878SOL    MW4 3512   2.932   2.336   1.629 -0.3807  0.4089 -0.1431
  879SOL     OW 3513   2.703   2.434   1.521  0.2423  0.1970  0.1390
  879SOL    HW2 3514   2.696   2.521   1.561  0.8398  0.1371  0.3651
  879SOL    HW3 3515   2.614   2.399   1.526  0.5246 -0.2742  2.4367
  879SOL    MW4 3516   2.690   2.441   1.527  0.3584  0.1269  0.4720
  880SOL     OW 3517   2.712   2.682   1.640 -0.4354  0.3243  0.0592
  880SOL    HW2 3518   2.775   2.737   1.593  0.0720 -1.1257 -1.0135
  880SOL    HW3 3519   2.627   2.714   1.612 -0.1362 -0.3685 -1.7101
  880SOL    MW4 3520   2.709   2.693   1.630 -0.3290  0.0416 -0.3158
  881SOL     OW 3521   2.903   2.823   1.518 -0.1655  0.2420 -0.3383
  881SOL    HW2 3522   2.979   2.778   1.556 -0.7983  0.1992  0.9312
  881SOL    HW3 3523   2.906   2.911   1.558 -1.0772  0.0616  0.1358
  881SOL    MW4 3524   2.914   2.829   1.529 -0.3692  0.2125 -0.1083
  882SOL     OW 3525   2.894   3.072   1.633  0.0976 -0.5223  0.0241
  882SOL    HW2 3526   2.900   3.078   1.729 -0.3216  1.9121 -0.0794
  882SOL    HW3 3527   2.980   3.097   1.602 -0.1117 -0.1872 -0.2800
  882SOL    MW4 3528   2.906   3.076   1.642  0.0147 -0.1569 -0.0297
  883SOL     OW 3529   2.681   3.227   1.556 -0.1442  0.1023 -0.2149
  883SOL    HW2 3530   2.758   3.172   1.571  0.1355  0.5272 -0.1053
  883SOL    HW3 3531   2.665   3.221   1.462 -0.6512 -0.8909 -0.0757
  883SOL    MW4 3532   2.689   3.219   1.546 -0.1742  0.0273 -0.1820
  884SOL     OW 3533   2.680   3.489   1.590 -0.3867  0.3408 -0.1754
  884SOL    HW2 3534   2.696   3.509   1.682 -0.1544  1.0449 -0.3686
  884SOL    HW3 3535   2.655   3.396   1.590 -1.0165  0.4971  0.6657
  884SOL    MW4 3536   2.679   3.479   1.602 -0.4391  0.4543 -0.0899
  885SOL     OW 3537   2.933   3.590   1.544  0.5762 -0.0704 -0.2137
  885SOL    HW2 3538   2.847   3.548   1.545  0.1492  0.8214  0.0729
  885SOL    HW3 3539   2.959   3.589   1.452 -0.5490  1.3080 -0.5635
  885SOL    MW4 3540   2.925   3.584   1.532  0.3714  0.2291 -0.2221
  886SOL     OW 3541   2.911   3.848   1.641 -0.1609  0.2181 -0.5886
  886SOL    HW2 3542   2.836   3.899   1.610 -1.4138 -0.9462  0.4430
  886SOL    HW3 3543   2.895   3.760   1.608  0.7942 -0.0145 -0.4305
  886SOL    MW4 3544   2.899   3.843   1.633 -0.2002  0.0338 -0.4317
  887SOL     OW 3545   2.689   3.973   1.535 -0.5455 -0.1439 -0.0636
  887SOL    HW2 3546   2.680   4.063   1.566 -3.3595 -0.0922 -0.9411
  887SOL    HW3 3547   2.708   3.981   1.442  2.1120 -0.4360  0.4146
  887SOL    MW4 3548   2.691   3.986   1.527 -0.5661 -0.1756 -0.1163
  888SOL     OW 3549   2.655   4.239   1.613  0.0263  0.1929  0.2380
  888SOL    HW2 3550   2.723   4.288   1.566 -0.0558  0.0109 -0.0637
  888SOL    HW3 3551   2.573   4.283   1.590 -0.1009 -0.3827 -0.4075
  888SOL    MW4 3552   2.653   4.252   1.604 -0.0013  0.0929  0.1130
  889SOL     OW 3553   2.881   4.360   1.531  0.5878  0.2665  0.0661
  889SOL    HW2 3554   2.878   4.454   1.549 -1.2425  0.6960 -2.3040
  889SOL    HW3 3555   2.895   4.354   1.437 -1.1181 -1.8270 -0.0967
  889SOL    MW4 3556   2.883   4.372   1.521  0.1213  0.0470 -0.2681
  890SOL     OW 3557   3.304   4.609   1.562 -0.2418 -0.1116 -0.0851
  890SOL    HW2 3558   3.381   4.659   1.535 -1.4561  1.0229 -1.5062
  890SOL    HW3 3559   3.330   4.518   1.553  1.0901  0.2653 -0.1250
  890SOL    MW4 3560   3.318   4.604   1.557 -0.2263  0.0878 -0.2778
  891SOL     OW 3561   3.104   0.119   1.486  0.0167  0.2651  0.3062
  891SOL    HW2 3562   3.172   0.055   1.507  0.0077 -0.3308 -1.4221
  891SOL    HW3 3563   3.024   0.084   1.526  0.5229  0.5586  1.6321
  891SOL    MW4 3564   3.102   0.106   1.494  0.0823  0.2252  0.2531
  892SOL     OW 3565   3.112   0.377   1.605 -0.3381 -0.0483 -0.1223
  892SOL    HW2 3566   3.116   0.292   1.563  0.5080  0.6269 -1.4442
  892SOL    HW3 3567   3.035   0.419   1.567 -0.7006 -0.1691  0.4590
  892SOL    MW4 3568   3.102   0.372   1.595 -0.2743  0.0249 -0.2200
  893SOL     OW 3569   3.362   0.509   1.547 -0.0140  0.0384  0.4078
  893SOL    HW2 3570   3.277   0.470   1.567 -0.3175  0.6572  0.3409
  893SOL    HW3 3571   3.360   0.523   1.452  0.4528 -0.6140  0.2934
  893SOL    MW4 3572   3.351   0.506   1.537  0.0075  0.0339  0.3839
  894SOL     OW 3573   3.352   0.769   1.609  0.2317  0.4365  0.4621
  894SOL    HW2 3574   3.351   0.786   1.703  0.2248  0.4397  0.4616
  894SOL    HW3 3575   3.341   0.674   1.601 -0.0016  0.4639  0.4588
  894SOL    MW4 3576   3.350   0.759   1.621  0.2000  0.4405  0.4616
  895SOL     OW 3577   3.159   0.906   1.481  0.4241  0.0044 -0.0671
  895SOL    HW2 3578   3.236   0.874   1.527  0.1401 -0.0698  0.3663
  895SOL    HW3 3579   3.087   0.851   1.513  0.1003  0.4262 -0.0534
  895SOL    MW4 3580   3.159   0.895   1.491  0.3439  0.0503 -0.0081
  896SOL     OW 3581   3.158   1.195   1.549 -0.5524 -0.3957  0.0923
  896SOL    HW2 3582   3.155   1.196   1.645  0.6586  1.1469  0.1438
  896SOL    HW3 3583   3.143   1.104   1.525  0.5258 -1.0476  1.8115
  896SOL    MW4 3584   3.155   1.183   1.559 -0.2504 -0.2782  0.3260
  897SOL     OW 3585   3.413   1.312   1.504  0.1966 -0.2629  0.6476
  897SOL    HW2 3586   3.482   1.266   1.552  0.6017 -0.4430 -0.1030
  897SOL    HW3 3587   3.337   1.253   1.509  0.0214  0.0370  1.6632
  897SOL    MW4 3588   3.412   1.298   1.511  0.2269 -0.2471  0.6826
  898SOL     OW 3589   3.324   1.564   1.599  0.2188  0.4401 -0.4897
  898SOL    HW2 3590   3.314   1.575   1.694  0.6672  2.0882 -0.6282
  898SOL    HW3 3591   3.327   1.469   1.587  1.0761  0.2110  1.2510
  898SOL    MW4 3592   3.323   1.553   1.610  0.3910  0.6273 -0.2783
  899SOL     OW 3593   3.110   1.724   1.512 -0.1305  0.3051 -0.2405
  899SOL    HW2 3594   3.186   1.667   1.525 -0.6762 -0.3341  0.2215
  899SOL    HW3 3595   3.040   1.682   1.563 -0.8204  0.8152 -0.7530
  899SOL    MW4 3596   3.111   1.711   1.520 -0.2935  0.2881 -0.2472
  900SOL     OW 3597   3.128   1.976   1.614  0.0730  0.7957 -0.3082
  900SOL    HW2 3598   3.121   1.887   1.581 -1.3418  0.4628  0.8091
  900SOL    HW3 3599   3.048   2.019   1.583 -0.9041  0.6901  1.9459
  900SOL    MW4 3600   3.116   1.970   1.605 -0.2426  0.7378  0.1366
  901SOL     OW 3601   3.357   2.084   1.513 -0.3630  0.2621  0.4084
  901SOL    HW2 3602   3.277   2.048   1.550  0.4078 -1.4621  0.4181
  901SOL    HW3 3603   3.344   2.081   1.418 -0.1701 -0.3408  0.4013
  901SOL    MW4 3604   3.345   2.079   1.505 -0.2359 -0.0449  0.4087
  902SOL     OW 3605   3.397   2.338   1.610  0.3598 -0.5010 -0.1864
  902SOL    HW2 3606   3.471   2.386   1.572  1.0842 -2.1641 -0.8945
  902SOL    HW3 3607   3.395   2.255   1.562 -0.7271 -1.2875  1.2043
  902SOL    MW4 3608   3.406   2.333   1.599  0.3120 -0.8242 -0.0963
  903SOL     OW 3609   3.173   2.479   1.529 -0.1829  0.6774 -0.0764
  903SOL    HW2 3610   3.246   2.432   1.568  0.1064  1.3861  0.2442
  903SOL    HW3 3611   3.095   2.437   1.566  0.0543 -0.2696 -0.6501
  903SOL    MW4 3612   3.172   2.467   1.539 -0.1134  0.6460 -0.1098
  904SOL     OW 3613   3.138   2.726   1.641  0.1946 -0.5516 -0.4705
  904SOL    HW2 3614   3.208   2.777   1.598  0.7178 -0.6188  0.2968
  904SOL    HW3 3615   3.150   2.637   1.607  0.6507 -0.6200 -0.1384
  904SOL    MW4 3616   3.149   2.721   1.631  0.3238 -0.5695 -0.3254
  905SOL     OW 3617   3.364   2.838   1.522 -0.5578  0.0207  0.5895
  905SOL    HW2 3618   3.357   2.932   1.536  0.9219  0.3271 -0.6125
  905SOL    HW3 3619   3.364   2.827   1.427 -0.0299 -1.1256  0.6991
  905SOL    MW4 3620   3.363   2.849   1.511 -0.2929 -0.0901  0.4454
  906SOL     OW 3621   3.352   3.104   1.564 -0.1381 -0.7173 -0.0661
  906SOL    HW2 3622   3.350   3.109   1.659 -0.6721  1.6439 -0.1785
  906SOL    HW3 3623   3.437   3.142   1.540  0.2479 -1.8530 -0.5022
  906SOL    MW4 3624   3.363   3.110   1.573 -0.1576 -0.5556 -0.1385
  907SOL     OW 3625   3.109   3.182   1.504  0.2410  0.2149  0.1150
  907SOL    HW2 3626   3.199   3.150   1.518  0.2454  0.6812  1.2772
  907SOL    HW3 3627   3.107   3.211   1.413  0.7772 -1.3610 -0.4074
  907SOL    MW4 3628   3.121   3.181   1.494  0.3123  0.0685  0.1994
  908SOL     OW 3629   3.152   3.449   1.642  0.1689 -0.1853  0.3447
  908SOL    HW2 3630   3.149   3.364   1.598 -0.6146 -0.2098  0.4348
  908SOL    HW3 3631   3.072   3.493   1.614  0.0490  0.1065  1.1329
  908SOL    MW4 3632   3.141   3.444   1.633  0.0497 -0.1500  0.4606
  909SOL     OW 3633   3.344   3.601   1.529 -0.0709 -0.0279  0.5947
  909SOL    HW2 3634   3.427   3.573   1.567  0.7949  1.8411  0.1189
  909SOL    HW3 3635   3.278   3.556   1.582  1.2304 -1.9000  0.6902
  909SOL    MW4 3636   3.346   3.591   1.541  0.2151 -0.0283  0.5445
  910SOL     OW 3637   3.391   3.854   1.610 -0.0184 -0.2048 -0.4153
  910SOL    HW2 3638   3.316   3.910   1.591 -0.3649 -0.9408 -1.2150
  910SOL    HW3 3639   3.371   3.770   1.568  0.2035 -1.1542  1.3096
  910SOL    MW4 3640   3.379   3.850   1.602 -0.0348 -0.4272 -0.2932
  911SOL     OW 3641   3.144   3.967   1.546  0.8555  0.4366  0.0237
  911SOL    HW2 3642   3.126   4.058   1.571 -0.5711  0.3672 -0.7090
  911SOL    HW3 3643   3.077   3.916   1.592  0.4911 -0.0438 -1.0333
  911SOL    MW4 3644   3.133   3.972   1.555  0.6192  0.3640 -0.2125
  912SOL     OW 3645   3.143   4.262   1.591 -0.5346 -0.2953  0.0727
  912SOL    HW2 3646   3.168   4.277   1.682  1.0088  0.2722 -0.4328
  912SOL    HW3 3647   3.055   4.300   1.585  0.2943  1.8160  0.7401
  912SOL    MW4 3648   3.134   4.269   1.602 -0.2216  0.0581  0.0941
  913SOL     OW 3649   3.403   4.356   1.493 -0.2174  0.2592 -0.0249
  913SOL    HW2 3650   3.317   4.320   1.513 -0.0657  0.0300  0.2120
  913SOL    HW3 3651   3.403   4.365   1.398 -0.0215 -0.9498 -0.1479
  913SOL    MW4 3652   3.392   4.353   1.483 -0.1715  0.0694 -0.0099
  914SOL     OW 3653   3.796   4.658   1.608  0.0763 -0.9199 -0.1370
  914SOL    HW2 3654   3.825   4.643   1.698 -0.1168  0.5739  0.1817
  914SOL    HW3 3655   3.870   4.700   1.565 -0.4876  0.0350 -0.1799
  914SOL    MW4 3656   3.810   4.662   1.614 -0.0236 -0.5968 -0.1006
  915SOL     OW 3657   3.543   0.097   1.509 -0.4239 -0.2153 -0.0289
  915SOL    HW2 3658   3.630   0.076   1.544 -0.6638  1.2852  1.4950
  915SOL    HW3 3659   3.558   0.117   1.417  1.0536  1.2727  0.5162
  915SOL    MW4 3660   3.556   0.097   1.501 -0.2606  0.1790  0.2441
  916SOL     OW 3661   3.602   0.366   1.601 -0.6146 -0.1354  0.5359
  916SOL    HW2 3662   3.574   0.278   1.575 -0.8979 -0.4269  1.7803
  916SOL    HW3 3663   3.525   0.421   1.584  0.7327  0.5933 -3.7074
  916SOL    MW4 3664   3.588   0.362   1.595 -0.4743 -0.0778  0.1403
  917SOL     OW 3665   3.798   0.524   1.518  0.2625  0.0253 -0.3185
  917SOL    HW2 3666   3.723   0.464   1.524 -0.5503  1.0957  0.2895
  917SOL    HW3 3667   3.831   0.511   1.429  0.4452 -1.7420 -0.0279
  917SOL    MW4 3668   3.792   0.514   1.507  0.1793 -0.0666 -0.1999
  918SOL     OW 3669   3.857   0.775   1.598  0.1064  0.0867 -0.3938
  918SOL    HW2 3670   3.774   0.821   1.583 -0.3336  0.3162  2.4766
  918SOL    HW3 3671   3.839   0.684   1.577 -1.0288  0.0581  0.6739
  918SOL    MW4 3672   3.844   0.769   1.593 -0.1014  0.1132  0.1258
  919SOL     OW 3673   3.601   0.888   1.545  0.3217  0.1239  0.1484
  919SOL    HW2 3674   3.513   0.851   1.556  0.6014 -0.7333 -0.4650
  919SOL    HW3 3675   3.610   0.902   1.451  0.8804  0.1243  0.2000
  919SOL    MW4 3676   3.591   0.885   1.534  0.4323  0.0109  0.0743
  920SOL     OW 3677   3.619   1.166   1.624 -0.1392  0.1540  0.1285
  920SOL    HW2 3678   3.694   1.193   1.571 -0.3933  0.4994 -0.0657
  920SOL    HW3 3679   3.605   1.074   1.602 -0.1893  0.2740 -0.3392
  920SOL    MW4 3680   3.627   1.158   1.614 -0.1793  0.2154  0.0411
  921SOL     OW 3681   3.845   1.282   1.504 -0.3569  0.2342 -0.1951
  921SOL    HW2 3682   3.908   1.228   1.551 -1.1688  0.2395  0.9341
  921SOL    HW3 3683   3.843   1.364   1.554 -2.0053 -0.1399  0.4020
  921SOL    MW4 3684   3.853   1.286   1.517 -0.6815  0.1855  0.0327
  922SOL     OW 3685   3.781   1.534   1.622  0.2877  0.1583  0.5645
  922SOL    HW2 3686   3.773   1.554   1.715  0.1716 -0.0096  0.5890
  922SOL    HW3 3687   3.712   1.586   1.580  0.6560  0.6172  0.5194
  922SOL    MW4 3688   3.771   1.544   1.629  0.3210  0.1967  0.5618
  923SOL     OW 3689   3.552   1.666   1.503 -0.6385 -0.1153 -0.1711
  923SOL    HW2 3690   3.470   1.629   1.533 -0.5397 -1.9135 -1.9667
  923SOL    HW3 3691   3.547   1.662   1.407  1.4990 -0.2292 -0.3206
  923SOL    MW4 3692   3.541   1.661   1.494 -0.3434 -0.3676 -0.4277
  924SOL     OW 3693   3.571   1.917   1.659 -0.0487  0.0061 -0.2158
  924SOL    HW2 3694   3.575   1.833   1.613 -0.5141 -0.8257  1.2545
  924SOL    HW3 3695   3.501   1.965   1.615 -0.3734 -0.7111 -0.4831
  924SOL    MW4 3696   3.563   1.912   1.647 -0.1529 -0.1983 -0.0571
  925SOL     OW 3697   3.792   2.051   1.534  0.0099 -0.3554 -0.3444
  925SOL    HW2 3698   3.774   2.134   1.578  1.3118 -0.5206  0.5253
  925SOL    HW3 3699   3.724   1.992   1.566 -2.0443  0.8553 -2.3899
  925SOL    MW4 3700   3.781   2.054   1.544 -0.0894 -0.2175 -0.4996
  926SOL     OW 3701   3.804   2.311   1.641  0.1872 -0.6429  0.0482
  926SOL    HW2 3702   3.819   2.288   1.732  0.8478 -1.1747 -0.1838
  926SOL    HW3 3703   3.890   2.340   1.609 -0.0750 -0.2988 -0.3587
  926SOL    MW4 3704   3.817   2.312   1.649  0.2398 -0.6677 -0.0361
  927SOL     OW 3705   3.626   2.480   1.514 -0.6607 -0.3690  0.1149
  927SOL    HW2 3706   3.631   2.567   1.552 -0.9449  0.2654 -1.2350
  927SOL    HW3 3707   3.683   2.425   1.568  1.3706  1.1734 -0.4257
  927SOL    MW4 3708   3.634   2.484   1.526 -0.4302 -0.0818 -0.1345
  928SOL     OW 3709   3.602   2.736   1.622 -0.1080  0.3248  0.1671
  928SOL    HW2 3710   3.600   2.724   1.717  0.7852  1.0498  0.2840
  928SOL    HW3 3711   3.510   2.745   1.597 -0.6258 -3.3129  0.4905
  928SOL    MW4 3712   3.589   2.736   1.632 -0.0585 -0.0595  0.2252
  929SOL     OW 3713   3.815   2.856   1.488  0.3320 -0.1770 -0.2114
  929SOL    HW2 3714   3.896   2.813   1.515 -0.2556 -1.4514 -0.4796
  929SOL    HW3 3715   3.747   2.819   1.544 -0.1185  0.7049 -0.1597
  929SOL    MW4 3716   3.817   2.846   1.499  0.1950 -0.2288 -0.2400
  930SOL     OW 3717   3.853   3.116   1.588 -0.3154 -0.1397 -0.0529
  930SOL    HW2 3718   3.919   3.175   1.554 -1.0103  0.1472 -0.9154
  930SOL    HW3 3719   3.864   3.035   1.538  0.8529 -0.8626  1.3551
  930SOL    MW4 3720   3.863   3.113   1.577 -0.2530 -0.1972  0.0191
  931SOL     OW 3721   3.597   3.248   1.548  0.3941  0.3472  0.2284
  931SOL    HW2 3722   3.674   3.201   1.581 -0.6589 -0.8848  1.0039
  931SOL    HW3 3723   3.609   3.247   1.453  0.6376 -1.1104  0.2484
  931SOL    MW4 3724   3.609   3.241   1.540  0.2873 -0.0077  0.3334
  932SOL     OW 3725   3.600   3.518   1.635  0.3591 -0.3326 -0.3693
  932SOL    HW2 3726   3.667   3.555   1.578  1.2688 -0.0907  0.8238
  932SOL    HW3 3727   3.607   3.423   1.624  0.0913 -0.2625 -1.1369
  932SOL    MW4 3728   3.610   3.510   1.626  0.4438 -0.2915 -0.3131
  933SOL     OW 3729   3.810   3.657   1.487 -0.3116 -0.1295 -0.0361
  933SOL    HW2 3730   3.894   3.614   1.498 -0.2614 -0.0203  0.0139
  933SOL    HW3 3731   3.824   3.745   1.522 -0.6427 -0.3286  0.6052
  933SOL    MW4 3732   3.823   3.663   1.493 -0.3486 -0.1414  0.0551
  934SOL     OW 3733   3.807   3.908   1.590  0.4680  0.2219  0.1858
  934SOL    HW2 3734   3.885   3.960   1.572  0.1577  0.6884  0.1665
  934SOL    HW3 3735   3.735   3.956   1.548  0.0794  0.1299  0.7327
  934SOL    MW4 3736   3.807   3.921   1.582  0.3758  0.2713  0.2554
  935SOL     OW 3737   3.575   4.027   1.494 -0.6036  0.3121 -0.0139
  935SOL    HW2 3738   3.576   4.107   1.546  0.9116  0.9944 -1.0719
  935SOL    HW3 3739   3.511   3.971   1.539 -1.3993  1.9410  0.9607
  935SOL    MW4 3740   3.567   4.030   1.507 -0.5087  0.6171 -0.0249
  936SOL     OW 3741   3.609   4.253   1.653 -0.6269  0.0735 -0.1519
  936SOL    HW2 3742   3.588   4.262   1.746 -1.8553 -0.5963 -0.3484
  936SOL    HW3 3743   3.535   4.294   1.608 -0.2782 -0.0481 -0.8361
  936SOL    MW4 3744   3.596   4.259   1.659 -0.7430 -0.0309 -0.2681
  937SOL     OW 3745   3.817   4.384   1.521  0.3772  0.6185  0.0657
  937SOL    HW2 3746   3.736   4.339   1.543 -0.1944  1.6084 -0.0031
  937SOL    HW3 3747   3.811   4.469   1.565 -0.0353  1.9511 -2.4505
  937SOL    MW4 3748   3.806   4.389   1.530  0.2474  0.9249 -0.2754
  938SOL     OW 3749   4.265   0.009   1.575  0.2283  0.4788 -0.4465
  938SOL    HW2 3750   4.268   0.015   1.670 -0.5624  0.9532 -0.4412
  938SOL    HW3 3751   4.266  -0.085   1.556  0.3303  0.3840  0.0262
  938SOL    MW4 3752   4.266  -0.002   1.585  0.1374  0.5289 -0.3834
  939SOL     OW 3753   4.032   0.111   1.485 -0.1171 -0.1678 -0.1281
  939SOL    HW2 3754   4.027   0.202   1.515  0.9843  0.0500 -0.6140
  939SOL    HW3 3755   4.117   0.080   1.516  0.0695 -0.6288 -1.0836
  939SOL    MW4 3756   4.042   0.119   1.493  0.0529 -0.1999 -0.3183
  940SOL     OW 3757   4.018   0.374   1.608  0.2139  0.5121  0.0710
  940SOL    HW2 3758   4.015   0.349   1.700 -1.3978  0.1142 -0.0708
  940SOL    HW3 3759   3.932   0.412   1.590  0.9921  1.8448 -0.9294
  940SOL    MW4 3760   4.006   0.376   1.617  0.1039  0.6354 -0.0797
  941SOL     OW 3761   4.244   0.476   1.511 -0.0312 -0.3502  0.2306
  941SOL    HW2 3762   4.163   0.459   1.559  0.3468  0.0778  1.0297
  941SOL    HW3 3763   4.312   0.432   1.563  0.2020 -1.0706 -0.6597
  941SOL    MW4 3764   4.242   0.468   1.524  0.0494 -0.3887  0.2186
  942SOL     OW 3765   4.282   0.734   1.627  0.5248  0.1217  0.0641
  942SOL    HW2 3766   4.262   0.651   1.582 -0.9084  1.2221 -1.3655
  942SOL    HW3 3767   4.351   0.773   1.574  1.0670 -0.0583  0.6344
  942SOL    MW4 3768   4.288   0.728   1.614  0.4072  0.2431 -0.0493
  943SOL     OW 3769   4.095   0.876   1.478  0.0066 -0.3249 -0.5920
  943SOL    HW2 3770   4.165   0.853   1.538 -0.6094 -0.3557  0.1263
  943SOL    HW3 3771   4.016   0.838   1.516 -0.3483 -0.6022 -1.5781
  943SOL    MW4 3772   4.094   0.868   1.491 -0.1215 -0.3656 -0.6273
  944SOL     OW 3773   4.056   1.135   1.626  0.8848 -0.0791  0.4140
  944SOL    HW2 3774   4.069   1.135   1.721 -0.3680  1.9689  0.6254
  944SOL    HW3 3775   4.088   1.050   1.597  0.8582 -0.9045  2.7313
  944SOL    MW4 3776   4.062   1.124   1.635  0.7160  0.0822  0.7477
  945SOL     OW 3777   4.263   1.274   1.502  0.0887  0.1194 -0.0168
  945SOL    HW2 3778   4.197   1.231   1.557  1.0877 -1.8786 -0.3401
  945SOL    HW3 3779   4.346   1.254   1.546  0.5184  2.3149  0.1912
  945SOL    MW4 3780   4.266   1.265   1.515  0.2772  0.1454 -0.0320
  946SOL     OW 3781   4.239   1.528   1.620 -0.2513 -0.1670  1.0006
  946SOL    HW2 3782   4.254   1.443   1.578 -0.9491  0.3243 -0.2642
  946SOL    HW3 3783   4.305   1.586   1.582 -1.1752  0.3938  0.2144
  946SOL    MW4 3784   4.250   1.524   1.609 -0.4653 -0.0282  0.7300
  947SOL     OW 3785   4.003   1.688   1.583 -0.2027  0.3422  0.1025
  947SOL    HW2 3786   4.075   1.627   1.598  0.0761  0.1255 -1.9613
  947SOL    HW3 3787   3.926   1.632   1.577 -0.2475  0.3886  0.2363
  947SOL    MW4 3788   4.002   1.672   1.584 -0.1718  0.3197 -0.1521
  948SOL     OW 3789   4.026   1.961   1.650 -0.3225  0.0267  0.5497
  948SOL    HW2 3790   4.010   1.868   1.633 -0.0980 -0.1582  1.3371
  948SOL    HW3 3791   3.954   2.006   1.605 -1.0239 -0.5962  1.0368
  948SOL    MW4 3792   4.014   1.955   1.642 -0.3854 -0.0799  0.7179
  949SOL     OW 3793   4.252   2.076   1.529  0.1898 -0.4075 -0.3861
  949SOL    HW2 3794   4.179   2.028   1.568  0.0608  0.3268  0.2771
  949SOL    HW3 3795   4.232   2.079   1.436 -1.3526  1.0347 -0.0329
  949SOL    MW4 3796   4.240   2.070   1.522 -0.0307 -0.1203 -0.2520
  950SOL     OW 3797   4.261   2.332   1.646  0.2542 -0.2514 -0.4442
  950SOL    HW2 3798   4.293   2.331   1.736 -0.0118 -0.1148 -0.3480
  950SOL    HW3 3799   4.288   2.247   1.610 -0.8124 -0.8691  0.1786
  950SOL    MW4 3800   4.269   2.321   1.653  0.0784 -0.3149 -0.3493
  951SOL     OW 3801   4.024   2.447   1.543 -0.1703  0.2427  0.2778
  951SOL    HW2 3802   4.024   2.539   1.568 -0.9701  0.3086  0.0352
  951SOL    HW3 3803   4.107   2.413   1.578 -0.2208  0.8722  1.0206
  951SOL    MW4 3804   4.035   2.454   1.551 -0.2825  0.3344  0.3438
  952SOL     OW 3805   4.041   2.721   1.582  0.0370 -0.1656 -0.4889
  952SOL    HW2 3806   4.056   2.715   1.676  0.2961 -1.2168 -0.5829
  952SOL    HW3 3807   4.127   2.744   1.545 -0.0646  0.2458 -0.4656
  952SOL    MW4 3808   4.055   2.723   1.589  0.0578 -0.2500 -0.4982
  953SOL     OW 3809   4.273   2.830   1.497 -0.1522 -0.3036 -0.5736
  953SOL    HW2 3810   4.267   2.924   1.516  2.1972  0.0729 -1.5548
  953SOL    HW3 3811   4.281   2.826   1.402  0.6939 -1.4452 -0.4550
  953SOL    MW4 3812   4.273   2.842   1.487  0.2694 -0.4045 -0.6875
  954SOL     OW 3813   4.272   3.117   1.577 -0.0061 -0.0194 -0.5236
  954SOL    HW2 3814   4.285   3.125   1.671 -0.1785 -0.9037 -0.4155
  954SOL    HW3 3815   4.356   3.141   1.539  0.3312 -0.5028 -0.0942
  954SOL    MW4 3816   4.285   3.121   1.584  0.0157 -0.1998 -0.4527
  955SOL     OW 3817   4.057   3.247   1.466 -0.5317 -0.2762 -0.0977
  955SOL    HW2 3818   4.060   3.337   1.497 -2.1907 -0.6905  1.3719
  955SOL    HW3 3819   4.133   3.205   1.506 -1.4170 -0.2493  1.6750
  955SOL    MW4 3820   4.067   3.253   1.476 -0.8674 -0.3273  0.3301
  956SOL     OW 3821   4.045   3.498   1.591  0.3668 -0.0257 -0.0237
  956SOL    HW2 3822   4.053   3.489   1.686 -2.0590  1.5384  0.3574
  956SOL    HW3 3823   4.131   3.529   1.562  1.6598 -2.1292  1.4037
  956SOL    MW4 3824   4.058   3.501   1.599  0.2173 -0.0969  0.2149
  957SOL     OW 3825   4.285   3.618   1.525 -0.1357  0.3277 -0.4237
  957SOL    HW2 3826   4.301   3.707   1.556  0.4800  0.0758  0.0021
  957SOL    HW3 3827   4.267   3.628   1.431 -0.3434  0.9259 -0.3207
  957SOL    MW4 3828   4.285   3.631   1.517 -0.0819  0.3734 -0.3539
  958SOL     OW 3829   4.287   3.881   1.615  0.3585  0.0311 -0.1596
  958SOL    HW2 3830   4.198   3.903   1.587  0.1375 -0.7734 -0.1025
  958SOL    HW3 3831   4.344   3.936   1.561 -0.1536  0.1380 -0.5858
  958SOL    MW4 3832   4.283   3.891   1.604  0.2618 -0.0609 -0.2083
  959SOL     OW 3833   4.052   3.988   1.514  0.0321 -0.0105 -0.1890
  959SOL    HW2 3834   4.056   4.082   1.530 -1.1324  0.0931 -0.5055
  959SOL    HW3 3835   4.031   3.980   1.421 -2.6036 -0.5477  0.4088
  959SOL    MW4 3836   4.050   3.999   1.504 -0.4693 -0.0677 -0.1519
  960SOL     OW 3837   4.062   4.257   1.593 -0.7903 -0.1962  0.3588
  960SOL    HW2 3838   4.063   4.278   1.686  0.1373 -0.5582  0.4399
  960SOL    HW3 3839   3.981   4.296   1.560 -1.2022 -0.2119  1.3460
  960SOL    MW4 3840   4.051   4.265   1.601 -0.7223 -0.2461  0.4998
  961SOL     OW 3841   4.276   4.418   1.506  0.0425  0.0304  0.2335
  961SOL    HW2 3842   4.203   4.365   1.538  1.1595 -1.5717  0.1597
  961SOL    HW3 3843   4.279   4.401   1.412  1.7397 -1.4895  0.5273
  961SOL    MW4 3844   4.267   4.409   1.498  0.4138 -0.3815  0.2625
  962SOL     OW 3845   0.235   4.584   1.901  0.2910  0.5193 -0.1191
  962SOL    HW2 3846   0.288   4.661   1.920  2.0221 -0.7166  0.2139
  962SOL    HW3 3847   0.227   4.584   1.805  0.2739  1.1101 -0.1214
  962SOL    MW4 3848   0.241   4.594   1.891  0.5171  0.4342 -0.0755
  963SOL     OW 3849   0.010   0.077   1.997 -0.0264 -0.0166  0.9407
  963SOL    HW2 3850   0.017   0.163   1.956  1.0528  1.1201  3.3828
  963SOL    HW3 3851   0.087   0.029   1.966 -0.8885 -0.3253 -0.8152
  963SOL    MW4 3852   0.021   0.082   1.987  0.0022  0.0927  1.0312
  964SOL     OW 3853   4.490   0.347   1.886  0.2469 -0.4620  0.7319
  964SOL    HW2 3854   4.410   0.394   1.909  0.4354 -1.1466  2.8896
  964SOL    HW3 3855   4.561   0.402   1.919  0.5886 -0.9333  0.7906
  964SOL    MW4 3856   4.489   0.360   1.893  0.3168 -0.6145  1.0243
  965SOL     OW 3857   0.215   0.499   1.989  0.0625  0.0700 -0.4648
  965SOL    HW2 3858   0.295   0.459   1.954  0.5621 -1.9295  2.7582
  965SOL    HW3 3859   0.221   0.591   1.962  3.9456  0.1717  0.4491
  965SOL    MW4 3860   0.227   0.506   1.981  0.6407 -0.1804  0.0810
  966SOL     OW 3861   0.240   0.763   1.864  0.2504 -0.2961 -0.0414
  966SOL    HW2 3862   0.308   0.817   1.904  0.6340 -0.1016 -0.9313
  966SOL    HW3 3863   0.236   0.794   1.773 -2.6460  1.2769  0.5615
  966SOL    MW4 3864   0.248   0.774   1.857 -0.0811 -0.0629 -0.0792
  967SOL     OW 3865   0.030   0.877   2.004  0.3523 -0.4106 -0.3165
  967SOL    HW2 3866  -0.052   0.829   1.989  0.0922  0.1000 -0.5687
  967SOL    HW3 3867   0.091   0.843   1.939  0.1174 -0.2855 -0.6029
  967SOL    MW4 3868   0.027   0.866   1.993  0.2870 -0.3268 -0.3875
  968SOL     OW 3869   0.014   1.136   1.865  0.0372  0.1627  0.0892
  968SOL    HW2 3870  -0.051   1.191   1.909 -0.1807  0.3754 -0.4947
  968SOL    HW3 3871   0.017   1.056   1.918  1.6703  1.4378  1.9564
  968SOL    MW4 3872   0.006   1.132   1.878  0.2239  0.3590  0.2585
  969SOL     OW 3873   0.202   1.265   1.995  0.4178  0.3141  0.4066
  969SOL    HW2 3874   0.209   1.351   1.952  1.6518  0.7721  1.4755
  969SOL    HW3 3875   0.138   1.217   1.943 -0.2510  1.8742 -0.2438
  969SOL    MW4 3876   0.195   1.270   1.983  0.4924  0.5804  0.4618
  970SOL     OW 3877   0.206   1.527   1.894  0.1274 -0.3138 -0.3677
  970SOL    HW2 3878   0.292   1.563   1.919  0.4598 -1.2587 -0.1485
  970SOL    HW3 3879   0.145   1.570   1.953  0.6686 -0.9934  0.6988
  970SOL    MW4 3880   0.210   1.538   1.905  0.2426 -0.5281 -0.1981
  971SOL     OW 3881   4.490   1.663   2.015 -0.1601 -0.2462  0.0550
  971SOL    HW2 3882   4.502   1.658   2.110 -1.8631  0.8701  0.3650
  971SOL    HW3 3883   4.404   1.623   2.000  0.1242 -0.4680 -1.0287
  971SOL    MW4 3884   4.480   1.657   2.026 -0.3473 -0.1282 -0.0471
  972SOL     OW 3885   4.470   1.922   1.901 -0.2044 -0.3832  0.1215
  972SOL    HW2 3886   4.397   1.963   1.949  0.2077 -0.1177  0.5213
  972SOL    HW3 3887   4.473   1.833   1.935 -0.0068 -0.2380  0.4890
  972SOL    MW4 3888   4.461   1.916   1.912 -0.1240 -0.3290  0.2227
  973SOL     OW 3889   0.232   2.031   1.978 -0.0231 -0.0111 -0.2237
  973SOL    HW2 3890   0.249   2.115   1.936  0.6907  0.5147  1.0713
  973SOL    HW3 3891   0.151   1.999   1.937 -0.5172  1.4972 -0.4505
  973SOL    MW4 3892   0.224   2.038   1.967  0.0059  0.2572 -0.0828
  974SOL     OW 3893   0.260   2.294   1.869 -0.1681  0.2531  0.0037
  974SOL    HW2 3894   0.343   2.340   1.881  0.5812 -0.9077 -0.6566
  974SOL    HW3 3895   0.199   2.339   1.928  0.6141  1.8926 -0.4205
  974SOL    MW4 3896   0.263   2.306   1.879  0.0339  0.3163 -0.1394
  975SOL     OW 3897   0.061   2.456   2.024  0.5981  0.3972 -0.2494
  975SOL    HW2 3898   0.030   2.449   2.115 -0.5014  0.4714 -0.6080
  975SOL    HW3 3899   0.037   2.544   1.997  3.3563  1.3348  0.2472
  975SOL    MW4 3900   0.054   2.467   2.033  0.8170  0.5307 -0.2312
  976SOL     OW 3901   4.455   2.709   1.935  0.2480 -0.4206  0.2333
  976SOL    HW2 3902   4.381   2.761   1.967  0.0010 -1.5446  1.5783
  976SOL    HW3 3903   4.453   2.719   1.840 -0.4764  1.0926  0.4040
  976SOL    MW4 3904   4.445   2.717   1.927  0.1199 -0.3692  0.4333
  977SOL     OW 3905   0.212   2.832   2.009 -0.4241 -0.0275  0.0728
  977SOL    HW2 3906   0.215   2.920   1.972 -0.6472 -0.1550 -0.2546
  977SOL    HW3 3907   0.123   2.801   1.992 -0.3231 -0.3438  0.1080
  977SOL    MW4 3908   0.201   2.840   2.002 -0.4402 -0.0860  0.0342
  978SOL     OW 3909   0.239   3.064   1.860 -0.1478  0.2217  0.0037
  978SOL    HW2 3910   0.323   3.098   1.891  0.6610 -0.0897 -1.7378
  978SOL    HW3 3911   0.247   3.065   1.764 -0.8349 -2.9054 -0.1593
  978SOL    MW4 3912   0.251   3.068   1.851 -0.1317 -0.2320 -0.2476
  979SOL     OW 3913   0.043   3.211   1.997 -0.2417  0.2581  0.1201
  979SOL    HW2 3914  -0.034   3.179   1.950 -0.3617  0.1922  0.3659
  979SOL    HW3 3915   0.117   3.167   1.954 -0.3190  0.4924 -0.2623
  979SOL    MW4 3916   0.043   3.201   1.985 -0.2677  0.2803  0.1021
  980SOL     OW 3917   0.014   3.479   1.903 -0.0260 -0.1486 -0.3637
  980SOL    HW2 3918   0.096   3.518   1.934  1.8689 -2.3054 -2.4988
  980SOL    HW3 3919   0.012   3.392   1.942 -2.4797  0.6611  1.4924
  980SOL    MW4 3920   0.024   3.473   1.912 -0.0998 -0.3263 -0.4005
  981SOL     OW 3921   0.245   3.602   1.968  0.1564 -0.1077 -0.2272
  981SOL    HW2 3922   0.256   3.614   2.062  1.0571 -1.6845 -0.1044
  981SOL    HW3 3923   0.322   3.551   1.941  0.2099  0.8408 -1.9187
  981SOL    MW4 3924   0.256   3.597   1.977  0.2823 -0.1906 -0.4342
  982SOL     OW 3925   0.244   3.858   1.868  0.6090 -0.2102  0.0906
  982SOL    HW2 3926   0.327   3.893   1.900  0.0291 -0.2340  1.6984
  982SOL    HW3 3927   0.243   3.767   1.898  0.3523 -0.4396 -0.6036
  982SOL    MW4 3928   0.255   3.850   1.876  0.4986 -0.2436  0.2112
  983SOL     OW 3929   0.023   4.021   1.975 -0.3865  0.2554 -0.0113
  983SOL    HW2 3930   0.036   4.103   1.928 -0.5223 -0.3518 -1.1387
  983SOL    HW3 3931   0.104   3.972   1.960  0.4782  0.9274  2.2437
  983SOL    MW4 3932   0.035   4.025   1.967 -0.2903  0.2640  0.1374
  984SOL     OW 3933   0.026   4.263   1.833 -0.6615  0.2417  0.2248
  984SOL    HW2 3934  -0.048   4.315   1.865 -0.7058  0.2506  0.1072
  984SOL    HW3 3935   0.100   4.294   1.885 -0.8047 -0.0136  0.5878
  984SOL    MW4 3936   0.026   4.274   1.844 -0.6863  0.2092  0.2572
  985SOL     OW 3937   0.251   4.338   2.014  0.1367 -0.2642  0.4301
  985SOL    HW2 3938   0.230   4.350   2.106  0.1567  0.0539  0.3930
  985SOL    HW3 3939   0.261   4.427   1.979  2.8284 -0.4160  0.7450
  985SOL    MW4 3940   0.250   4.351   2.021  0.4945 -0.2423  0.4668
  986SOL     OW 3941   0.677   4.658   1.924  0.1522 -0.1686  0.5870
  986SOL    HW2 3942   0.702   4.569   1.948 -1.4254 -1.0033 -0.7956
  986SOL    HW3 3943   0.649   4.652   1.833  2.1082  2.1702 -0.2250
  986SOL    MW4 3944   0.677   4.645   1.915  0.2021  0.0299  0.2975
  987SOL     OW 3945   0.425   0.091   1.958 -0.4621 -0.2776  0.3805
  987SOL    HW2 3946   0.424   0.173   1.909 -0.8835 -0.4139  0.1574
  987SOL    HW3 3947   0.514   0.058   1.948 -0.4170 -0.0714  0.0986
  987SOL    MW4 3948   0.437   0.097   1.950 -0.5117 -0.2684  0.3138
  988SOL     OW 3949   0.466   0.353   1.857 -0.2716  0.3781 -0.0094
  988SOL    HW2 3950   0.542   0.406   1.879 -0.1880  0.6655 -0.9632
  988SOL    HW3 3951   0.459   0.359   1.762  1.2112 -3.3355 -0.4481
  988SOL    MW4 3952   0.475   0.361   1.848 -0.0649 -0.0740 -0.1931
  989SOL     OW 3953   0.666   0.521   1.933 -0.0772 -0.1750  0.5486
  989SOL    HW2 3954   0.680   0.529   2.028  1.5987  0.0054  0.2983
  989SOL    HW3 3955   0.742   0.472   1.902 -0.5391 -0.0883 -0.7265
  989SOL    MW4 3956   0.678   0.516   1.942  0.0830 -0.1397  0.3473
  990SOL     OW 3957   0.671   0.798   1.874 -0.1919  0.3380 -0.3314
  990SOL    HW2 3958   0.743   0.817   1.934  1.1190 -0.8254 -1.4969
  990SOL    HW3 3959   0.661   0.703   1.878 -1.2706  0.4301 -0.6319
  990SOL    MW4 3960   0.679   0.788   1.882 -0.1613  0.1967 -0.5248
  991SOL     OW 3961   0.432   0.912   1.971 -0.4382  0.3480  0.5580
  991SOL    HW2 3962   0.440   1.005   1.951  0.2507  0.6712  2.2707
  991SOL    HW3 3963   0.516   0.875   1.945 -0.9213  0.1060 -0.6537
  991SOL    MW4 3964   0.444   0.919   1.965 -0.4110  0.3587  0.6241
  992SOL     OW 3965   0.439   1.192   1.875  0.1174  0.5662  0.1538
  992SOL    HW2 3966   0.350   1.207   1.908  0.0220 -1.1443  0.7659
  992SOL    HW3 3967   0.428   1.180   1.781 -0.3232  0.2861  0.2364
  992SOL    MW4 3968   0.426   1.192   1.867  0.0467  0.3035  0.2454
  993SOL     OW 3969   0.696   1.256   1.954  0.2802 -0.4261  0.2026
  993SOL    HW2 3970   0.691   1.254   2.050  1.0178  1.3869  0.2895
  993SOL    HW3 3971   0.610   1.225   1.926  0.1981 -1.3780  1.4395
  993SOL    MW4 3972   0.684   1.252   1.963  0.3667 -0.3125  0.3773
  994SOL     OW 3973   0.704   1.551   1.881 -0.0838 -0.6660  0.3112
  994SOL    HW2 3974   0.712   1.457   1.895 -0.4195 -0.5569  1.3323
  994SOL    HW3 3975   0.682   1.561   1.788  3.1985 -1.3975 -0.5784
  994SOL    MW4 3976   0.702   1.540   1.871  0.3050 -0.7481  0.3285
  995SOL     OW 3977   0.459   1.640   1.954 -0.0224  0.3346 -0.1342
  995SOL    HW2 3978   0.448   1.644   2.049  0.2096 -0.0082 -0.0906
  995SOL    HW3 3979   0.551   1.615   1.943 -0.0381  0.4233 -0.4489
  995SOL    MW4 3980   0.470   1.637   1.965  0.0062  0.3010 -0.1699
  996SOL     OW 3981   0.456   1.909   1.892 -0.2130 -0.3718  0.2291
  996SOL    HW2 3982   0.447   1.816   1.913 -1.3684 -0.5068 -0.8173
  996SOL    HW3 3983   0.371   1.947   1.913 -0.7462 -0.1304 -2.1428
  996SOL    MW4 3984   0.443   1.902   1.897 -0.4358 -0.3578 -0.2219
  997SOL     OW 3985   0.671   2.038   1.990  0.1007  0.6094  0.1491
  997SOL    HW2 3986   0.649   2.048   2.082 -0.1427  0.4727  0.1064
  997SOL    HW3 3987   0.603   1.981   1.955  0.4900  0.2336  0.0014
  997SOL    MW4 3988   0.659   2.032   1.997  0.1199  0.5418  0.1240
  998SOL     OW 3989   0.675   2.306   1.921  0.9814 -0.1357 -0.4642
  998SOL    HW2 3990   0.675   2.213   1.943  0.3240  0.1387  0.7275
  998SOL    HW3 3991   0.665   2.308   1.826 -0.9624 -1.2516 -0.3178
  998SOL    MW4 3992   0.674   2.294   1.911  0.6382 -0.2467 -0.2877
  999SOL     OW 3993   0.439   2.457   1.980  0.4610  0.0041  0.9062
  999SOL    HW2 3994   0.444   2.486   2.070 -0.8637  0.2113  0.9245
  999SOL    HW3 3995   0.524   2.417   1.962  0.9078  0.4378  2.0736
  999SOL    MW4 3996   0.451   2.455   1.989  0.3452  0.0886  1.0627
 1000SOL     OW 3997   0.435   2.721   1.892 -0.1924 -0.0250 -0.0246
 1000SOL    HW2 3998   0.429   2.629   1.918  0.7464  0.3647  1.5970
 1000SOL    HW3 3999   0.355   2.761   1.925 -0.6840 -0.2847 -0.8836
 1000SOL    MW4 4000   0.424   2.714   1.900 -0.1334 -0.0079  0.0760
 1001SOL     OW 4001   0.686   2.815   1.949 -0.3103 -0.3062  0.0735
 1001SOL    HW2 4002   0.670   2.824   2.043  0.2479 -1.0033  0.2317
 1001SOL    HW3 4003   0.601   2.791   1.913 -0.4805 -0.2313  0.4196
 1001SOL    MW4 4004   0.673   2.813   1.957 -0.2591 -0.3883  0.1400
 1002SOL     OW 4005   0.702   3.080   1.880 -0.4400 -0.1172  0.2010
 1002SOL    HW2 4006   0.714   2.987   1.898  0.8210  0.0328  0.2333
 1002SOL    HW3 4007   0.683   3.084   1.786 -0.4503 -0.4069  0.1897
 1002SOL    MW4 4008   0.701   3.068   1.870 -0.2749 -0.1356  0.2038
 1003SOL     OW 4009   0.470   3.166   1.987  0.0175  0.1157 -0.2618
 1003SOL    HW2 4010   0.467   3.257   1.957  1.6778  0.7604  1.4419
 1003SOL    HW3 4011   0.553   3.132   1.955  0.1545 -0.3023  0.5240
 1003SOL    MW4 4012   0.480   3.173   1.979  0.2546  0.1456  0.0667
 1004SOL     OW 4013   0.462   3.442   1.900 -0.1996 -0.7674  0.1128
 1004SOL    HW2 4014   0.541   3.485   1.933 -0.7380  0.0127  0.3945
 1004SOL    HW3 4015   0.457   3.470   1.808 -0.9788  0.4262  0.5043
 1004SOL    MW4 4016   0.472   3.452   1.892 -0.3734 -0.5070  0.2016
 1005SOL     OW 4017   0.666   3.611   1.997 -0.4786 -0.0407  0.4569
 1005SOL    HW2 4018   0.750   3.570   1.977 -0.4965  0.4918 -0.7488
 1005SOL    HW3 4019   0.666   3.692   1.946 -2.4530 -0.8746 -0.9326
 1005SOL    MW4 4020   0.677   3.616   1.988 -0.7414 -0.0805  0.1145
 1006SOL     OW 4021   0.670   3.850   1.869 -0.1983 -0.0749  0.0244
 1006SOL    HW2 4022   0.741   3.906   1.899 -1.9626  2.2445  0.0668
 1006SOL    HW3 4023   0.673   3.857   1.773  0.1917 -0.6793 -0.0044
 1006SOL    MW4 4024   0.680   3.858   1.860 -0.3796  0.1514  0.0262
 1007SOL     OW 4025   0.449   3.966   1.976  0.0306 -0.1469 -0.0571
 1007SOL    HW2 4026   0.463   4.057   1.948 -0.2563  0.0260  0.3546
 1007SOL    HW3 4027   0.524   3.918   1.940 -0.5582 -0.0071 -1.4903
 1007SOL    MW4 4028   0.461   3.972   1.968 -0.0849 -0.1056 -0.1919
 1008SOL     OW 4029   0.488   4.240   1.882  0.2063 -0.1856  0.0673
 1008SOL    HW2 4030   0.414   4.260   1.940  0.8566  0.1942  0.7623
 1008SOL    HW3 4031   0.454   4.259   1.794 -0.3338  0.5865  0.4341
 1008SOL    MW4 4032   0.474   4.245   1.878  0.2208 -0.0336  0.2074
 1009SOL     OW 4033   0.695   4.400   1.967 -0.3355 -0.3353 -0.4889
 1009SOL    HW2 4034   0.773   4.356   1.934  0.0261  0.7671 -1.1009
 1009SOL    HW3 4035   0.622   4.348   1.932  0.0748  0.0589 -1.9474
 1009SOL    MW4 4036   0.695   4.387   1.958 -0.2336 -0.1378 -0.7621
 1010SOL     OW 4037   1.131   4.665   1.890 -0.3140  0.3682 -0.4515
 1010SOL    HW2 4038   1.212   4.703   1.924 -0.0157  0.1365 -0.9060
 1010SOL    HW3 4039   1.129   4.576   1.926  0.2857 -0.0732 -1.4924
 1010SOL    MW4 4040   1.142   4.658   1.899 -0.1955  0.2794 -0.6488
 1011SOL     OW 4041   0.907   0.119   2.002 -0.3914  0.0579 -0.0669
 1011SOL    HW2 4042   0.982   0.071   1.969  0.2775  0.1352  1.2860
 1011SOL    HW3 4043   0.831   0.071   1.970  0.2539 -1.9413  1.2829
 1011SOL    MW4 4044   0.907   0.107   1.994 -0.2180 -0.1957  0.2897
 1012SOL     OW 4045   0.906   0.391   1.876 -0.8459  0.1422  0.9274
 1012SOL    HW2 4046   0.992   0.422   1.903 -0.6034  0.3562 -0.0886
 1012SOL    HW3 4047   0.897   0.305   1.917 -0.2139  0.1835  1.1534
 1012SOL    MW4 4048   0.916   0.384   1.885 -0.7305  0.1759  0.8232
 1013SOL     OW 4049   1.138   0.494   1.965 -0.1390 -1.0286  0.0261
 1013SOL    HW2 4050   1.222   0.449   1.953  1.6080  1.8758  1.0232
 1013SOL    HW3 4051   1.154   0.584   1.937 -2.4515 -0.0067  1.7973
 1013SOL    MW4 4052   1.151   0.500   1.960 -0.2136 -0.5106  0.3914
 1014SOL     OW 4053   1.164   0.759   1.870  0.1831 -0.1022 -0.0950
 1014SOL    HW2 4054   1.225   0.813   1.920  0.2302  0.0998 -0.3651
 1014SOL    HW3 4055   1.078   0.781   1.905  0.3354 -1.0613  0.9129
 1014SOL    MW4 4056   1.161   0.769   1.881  0.2094 -0.2021  0.0023
 1015SOL     OW 4057   0.921   0.857   1.971  0.0726 -0.2357  0.6548
 1015SOL    HW2 4058   0.900   0.874   2.063 -0.8436  0.1919  0.3778
 1015SOL    HW3 4059   0.907   0.941   1.928  0.3825 -0.4661  0.1012
 1015SOL    MW4 4060   0.916   0.871   1.977 -0.0074 -0.2097  0.5452
 1016SOL     OW 4061   0.886   1.091   1.847 -0.0637  0.4472 -0.2584
 1016SOL    HW2 4062   0.829   1.164   1.871  0.9520  1.1491  0.0740
 1016SOL    HW3 4063   0.897   1.099   1.753  0.1391  0.7988 -0.2067
 1016SOL    MW4 4064   0.880   1.102   1.838  0.0971  0.5862 -0.2077
 1017SOL     OW 4065   1.114   1.226   1.949  0.1061 -0.4760  0.1377
 1017SOL    HW2 4066   1.103   1.316   1.918  0.2652 -0.7839 -0.8292
 1017SOL    HW3 4067   1.054   1.174   1.895  2.7038 -1.4826 -1.9023
 1017SOL    MW4 4068   1.104   1.231   1.938  0.4698 -0.6495 -0.2590
 1018SOL     OW 4069   1.115   1.503   1.883 -0.4008 -0.1125 -0.6506
 1018SOL    HW2 4070   1.052   1.569   1.912  1.3323  1.4449 -0.3180
 1018SOL    HW3 4071   1.129   1.522   1.790 -0.6725 -0.6674 -0.8061
 1018SOL    MW4 4072   1.109   1.515   1.874 -0.2080  0.0198 -0.6272
 1019SOL     OW 4073   0.930   1.692   1.959  0.4956 -0.4892  0.1540
 1019SOL    HW2 4074   0.923   1.775   1.911 -1.7485 -0.3115  0.7038
 1019SOL    HW3 4075   0.847   1.647   1.940  0.3797 -1.2298  2.3535
 1019SOL    MW4 4076   0.918   1.697   1.950  0.1842 -0.5635  0.5167
 1020SOL     OW 4077   0.916   1.953   1.856  0.4647  0.1917  0.0219
 1020SOL    HW2 4078   0.836   1.988   1.894  0.7959 -1.3097  2.2158
 1020SOL    HW3 4079   0.897   1.943   1.763 -1.4815  0.9385  0.3304
 1020SOL    MW4 4080   0.903   1.956   1.849  0.2516  0.0921  0.3521
 1021SOL     OW 4081   1.136   2.006   1.999  0.2515 -0.2219 -0.0695
 1021SOL    HW2 4082   1.154   2.099   1.986  1.5390 -0.4939 -0.2557
 1021SOL    HW3 4083   1.048   1.994   1.963  0.0362  0.9476  0.0599
 1021SOL    MW4 4084   1.127   2.016   1.992  0.3930 -0.1035 -0.0770
 1022SOL     OW 4085   1.143   2.286   1.922  0.1535 -0.0704  0.0592
 1022SOL    HW2 4086   1.216   2.345   1.942 -1.2755  2.1091 -0.9852
 1022SOL    HW3 4087   1.137   2.286   1.827 -2.0577  0.8513  0.1846
 1022SOL    MW4 4088   1.152   2.294   1.912 -0.3268  0.3388 -0.0620
 1023SOL     OW 4089   0.902   2.439   1.999  0.2683 -0.2263  0.4051
 1023SOL    HW2 4090   0.972   2.382   1.966 -0.6696 -0.6968 -0.7969
 1023SOL    HW3 4091   0.821   2.392   1.978 -0.4666  0.9637  0.5480
 1023SOL    MW4 4092   0.900   2.425   1.992  0.0476 -0.1314  0.2654
 1024SOL     OW 4093   0.927   2.678   1.868 -0.0293  0.6362  0.0275
 1024SOL    HW2 4094   0.917   2.592   1.908  0.1744  0.6501  0.1085
 1024SOL    HW3 4095   0.845   2.724   1.887 -0.0057  0.5760  0.2649
 1024SOL    MW4 4096   0.915   2.673   1.875  0.0007  0.6301  0.0695
 1025SOL     OW 4097   1.143   2.853   1.941  0.2802 -0.1389  0.1924
 1025SOL    HW2 4098   1.147   2.848   2.037 -0.1906 -0.5268  0.1952
 1025SOL    HW3 4099   1.070   2.796   1.917 -0.8442  1.4564 -0.2644
 1025SOL    MW4 4100   1.134   2.844   1.951  0.0698  0.0204  0.1325
 1026SOL     OW 4101   1.104   3.113   1.865  0.1283 -0.1881 -0.0378
 1026SOL    HW2 4102   1.023   3.133   1.911  0.6370  0.0939  0.7353
 1026SOL    HW3 4103   1.119   3.020   1.882  0.9456  0.1971  1.3539
 1026SOL    MW4 4104   1.095   3.103   1.873  0.3033 -0.1001  0.2478
 1027SOL     OW 4105   0.897   3.234   2.011 -0.2854  0.8007 -0.0154
 1027SOL    HW2 4106   0.905   3.222   2.106  1.1415 -1.7949 -0.3956
 1027SOL    HW3 4107   0.818   3.186   1.988  1.3073 -1.6671 -0.5577
 1027SOL    MW4 4108   0.888   3.226   2.021  0.1130  0.1326 -0.1371
 1028SOL     OW 4109   0.903   3.485   1.911  0.0962 -0.2184 -0.3562
 1028SOL    HW2 4110   0.903   3.394   1.940 -0.5314 -0.3060 -0.6121
 1028SOL    HW3 4111   0.896   3.479   1.815  0.0533  0.0925 -0.3729
 1028SOL    MW4 4112   0.902   3.472   1.902  0.0077 -0.1890 -0.3922
 1029SOL     OW 4113   1.144   3.606   1.985  0.3412 -0.4032 -0.0699
 1029SOL    HW2 4114   1.143   3.593   2.080 -1.4731  1.2786  0.1725
 1029SOL    HW3 4115   1.060   3.571   1.956  0.3853  0.1891 -0.9140
 1029SOL    MW4 4116   1.133   3.600   1.994  0.1077 -0.1031 -0.1493
 1030SOL     OW 4117   1.102   3.853   1.861 -0.3582  0.4132 -0.0982
 1030SOL    HW2 4118   1.110   3.763   1.892 -0.7272  0.8445  1.2747
 1030SOL    HW3 4119   1.107   3.846   1.765  0.3206 -0.9800  0.0326
 1030SOL    MW4 4120   1.104   3.840   1.852 -0.3173  0.2863  0.1002
 1031SOL     OW 4121   0.873   4.003   1.959 -0.1367  0.7384 -0.0093
 1031SOL    HW2 4122   0.878   4.001   2.055  3.2128  1.9578 -0.1050
 1031SOL    HW3 4123   0.937   3.938   1.931  0.5509  2.0212 -1.4501
 1031SOL    MW4 4124   0.882   3.994   1.968  0.3959  1.0686 -0.2121
 1032SOL     OW 4125   0.905   4.257   1.843  0.0780  0.0451 -0.3456
 1032SOL    HW2 4126   0.980   4.305   1.879  0.8577 -0.9374 -0.6504
 1032SOL    HW3 4127   0.914   4.168   1.877  0.5836 -0.7935 -2.5480
 1032SOL    MW4 4128   0.916   4.252   1.852  0.2476 -0.1952 -0.6764
 1033SOL     OW 4129   1.095   4.401   1.961  0.2328  0.6855  0.2800
 1033SOL    HW2 4130   1.087   4.404   2.056  0.4982 -2.0220  0.4380
 1033SOL    HW3 4131   1.182   4.364   1.945  0.5567  1.9827 -1.0197
 1033SOL    MW4 4132   1.106   4.396   1.971  0.3105  0.4994  0.1294
 1034SOL     OW 4133   1.574   4.640   1.904  0.2576 -0.2420 -0.3829
 1034SOL    HW2 4134   1.656   4.676   1.936 -0.5938  1.3671  0.0353
 1034SOL    HW3 4135   1.575   4.548   1.932  0.1742  0.7300  3.0706
 1034SOL    MW4 4136   1.585   4.632   1.912  0.1343  0.0985  0.1279
 1035SOL     OW 4137   1.369   0.103   1.984  0.4593  0.1643  0.0346
 1035SOL    HW2 4138   1.360   0.078   2.076  0.1701 -2.4818 -0.6608
 1035SOL    HW3 4139   1.441   0.049   1.952 -0.1325  0.3022 -1.5501
 1035SOL    MW4 4140   1.377   0.092   1.992  0.3430 -0.1667 -0.2662
 1036SOL     OW 4141   1.369   0.361   1.890  0.2145  0.0764  0.0430
 1036SOL    HW2 4142   1.355   0.273   1.925  1.7651  0.1193  0.8033
 1036SOL    HW3 4143   1.376   0.349   1.796  0.6020 -0.6497  0.1619
 1036SOL    MW4 4144   1.368   0.348   1.882  0.4702 -0.0138  0.1590
 1037SOL     OW 4145   1.620   0.485   1.993 -0.6122 -0.1749 -0.2289
 1037SOL    HW2 4146   1.692   0.453   1.940  0.1216  2.6220 -1.0363
 1037SOL    HW3 4147   1.542   0.442   1.957  0.5252 -2.4999  0.0537
 1037SOL    MW4 4148   1.619   0.475   1.981 -0.3653 -0.1126 -0.2981
 1038SOL     OW 4149   1.590   0.748   1.877  0.1437 -0.0664  0.1005
 1038SOL    HW2 4150   1.670   0.795   1.900  0.9521 -0.9886 -0.7825
 1038SOL    HW3 4151   1.599   0.663   1.921 -0.9568  0.3030  1.0677
 1038SOL    MW4 4152   1.602   0.743   1.886  0.1052 -0.1394  0.1116
 1039SOL     OW 4153   1.413   0.909   1.991 -0.2211  0.3686  0.1779
 1039SOL    HW2 4154   1.407   0.899   2.086  0.7995  3.3567  0.6260
 1039SOL    HW3 4155   1.482   0.848   1.964  0.3766  0.4242  1.5445
 1039SOL    MW4 4156   1.421   0.900   2.000 -0.0076  0.7702  0.4173
 1040SOL     OW 4157   1.376   1.180   1.852  0.6817  0.2211  0.0216
 1040SOL    HW2 4158   1.399   1.089   1.873  0.5621  0.1329 -0.2267
 1040SOL    HW3 4159   1.289   1.192   1.891  1.2161  0.6072  1.1073
 1040SOL    MW4 4160   1.368   1.169   1.860  0.7364  0.2604  0.1321
 1041SOL     OW 4161   1.620   1.274   1.928  0.0570 -0.5492  0.0574
 1041SOL    HW2 4162   1.620   1.368   1.916  2.2027 -0.5605 -0.2735
 1041SOL    HW3 4163   1.530   1.247   1.908 -0.4686  1.3508 -0.2506
 1041SOL    MW4 4164   1.608   1.282   1.924  0.2707 -0.3000 -0.0269
 1042SOL     OW 4165   1.607   1.551   1.861  0.4565  0.3039  0.0352
 1042SOL    HW2 4166   1.684   1.589   1.903 -0.3278  1.9099  0.0268
 1042SOL    HW3 4167   1.533   1.600   1.895 -0.2611  1.2677 -2.7333
 1042SOL    MW4 4168   1.608   1.562   1.871  0.2583  0.6430 -0.3312
 1043SOL     OW 4169   1.367   1.644   1.983  0.3407  0.3315 -0.0425
 1043SOL    HW2 4170   1.365   1.669   2.076  0.1676 -0.3228  0.1332
 1043SOL    HW3 4171   1.286   1.595   1.970  0.0275  1.0210 -0.7148
 1043SOL    MW4 4172   1.356   1.641   1.994  0.2766  0.3362 -0.1080
 1044SOL     OW 4173   1.371   1.887   1.856  0.1802 -0.3882 -0.2879
 1044SOL    HW2 4174   1.374   1.800   1.894 -2.6025 -0.8041 -0.8801
 1044SOL    HW3 4175   1.286   1.922   1.884  1.4532  2.3446  0.3756
 1044SOL    MW4 4176   1.360   1.880   1.865 -0.0190 -0.0826 -0.2785
 1045SOL     OW 4177   1.581   2.017   2.018 -0.5369  0.2468 -0.3314
 1045SOL    HW2 4178   1.582   2.108   1.990 -0.6442  0.3347 -0.0422
 1045SOL    HW3 4179   1.526   1.973   1.953 -0.0560  0.2914 -0.7746
 1045SOL    MW4 4180   1.574   2.023   2.005 -0.4876  0.2643 -0.3517
 1046SOL     OW 4181   1.616   2.268   1.926 -1.0326  0.0903 -0.0162
 1046SOL    HW2 4182   1.704   2.301   1.948 -0.5291 -1.3356  0.1366
 1046SOL    HW3 4183   1.608   2.284   1.832  0.2496 -1.6838 -0.4577
 1046SOL    MW4 4184   1.627   2.275   1.916 -0.7970 -0.3319 -0.0543
 1047SOL     OW 4185   1.369   2.410   2.004 -0.0253 -0.0779  0.2013
 1047SOL    HW2 4186   1.400   2.492   1.965 -0.6310  0.3854  0.6850
 1047SOL    HW3 4187   1.440   2.347   1.988 -0.2300  0.1144 -1.6005
 1047SOL    MW4 4188   1.382   2.412   1.997 -0.1322  0.0086  0.0274
 1048SOL     OW 4189   1.382   2.699   1.883  0.4010  0.3596  0.1223
 1048SOL    HW2 4190   1.302   2.747   1.907 -0.5465 -1.3692  0.4602
 1048SOL    HW3 4191   1.368   2.675   1.792 -0.3223 -1.6042  0.7324
 1048SOL    MW4 4192   1.369   2.702   1.874  0.1805 -0.1276  0.2474
 1049SOL     OW 4193   1.585   2.871   1.951 -0.0796  0.0518 -0.2048
 1049SOL    HW2 4194   1.663   2.817   1.937  0.5659  0.9222 -0.0310
 1049SOL    HW3 4195   1.519   2.832   1.894  0.9050  0.1780 -1.4743
 1049SOL    MW4 4196   1.587   2.858   1.942  0.1355  0.1833 -0.3493
 1050SOL     OW 4197   1.573   3.151   1.898  0.0104  0.0981  0.1166
 1050SOL    HW2 4198   1.585   3.059   1.920 -0.3235  0.0893  0.2619
 1050SOL    HW3 4199   1.573   3.153   1.802  0.5648  0.0195  0.1134
 1050SOL    MW4 4200   1.574   3.139   1.888  0.0395  0.0866  0.1353
 1051SOL     OW 4201   1.323   3.249   2.002  0.2259 -0.0011 -0.2225
 1051SOL    HW2 4202   1.398   3.207   1.960 -0.0448 -1.2269  0.5159
 1051SOL    HW3 4203   1.247   3.202   1.968 -0.0136 -0.8251  1.4281
 1051SOL    MW4 4204   1.323   3.237   1.992  0.1586 -0.2716  0.0927
 1052SOL     OW 4205   1.355   3.493   1.850 -0.2692  0.5334 -0.1772
 1052SOL    HW2 4206   1.346   3.410   1.896 -0.7690 -0.1120 -1.4122
 1052SOL    HW3 4207   1.285   3.548   1.885  0.0336  0.4119  0.6067
 1052SOL    MW4 4208   1.344   3.489   1.860 -0.2952  0.4323 -0.2367
 1053SOL     OW 4209   1.567   3.653   1.948 -0.0451 -0.4586 -0.4752
 1053SOL    HW2 4210   1.566   3.662   2.044 -0.8354 -1.1845 -0.4134
 1053SOL    HW3 4211   1.495   3.594   1.929 -1.1317  1.2466 -1.6933
 1053SOL    MW4 4212   1.558   3.646   1.958 -0.2928 -0.3294 -0.6278
 1054SOL     OW 4213   1.555   3.921   1.876 -0.1814  0.2220  0.0560
 1054SOL    HW2 4214   1.634   3.964   1.907 -1.0775  0.1064  2.5752
 1054SOL    HW3 4215   1.569   3.828   1.893 -0.5558  0.1124 -0.2085
 1054SOL    MW4 4216   1.567   3.915   1.882 -0.3490  0.1923  0.3535
 1055SOL     OW 4217   1.315   4.000   1.975  0.5500 -0.2958 -0.3020
 1055SOL    HW2 4218   1.402   3.983   1.939  0.8113  1.2513 -0.4642
 1055SOL    HW3 4219   1.256   3.946   1.922  1.4609 -1.7936  0.1949
 1055SOL    MW4 4220   1.319   3.991   1.963  0.7046 -0.2893 -0.2579
 1056SOL     OW 4221   1.335   4.273   1.906 -0.5653 -0.0458  0.1390
 1056SOL    HW2 4222   1.314   4.185   1.939  0.3272 -0.4307 -0.3004
 1056SOL    HW3 4223   1.333   4.263   1.811 -0.2515  0.3667  0.0927
 1056SOL    MW4 4224   1.332   4.260   1.898 -0.4062 -0.0421  0.0749
 1057SOL     OW 4225   1.587   4.371   1.983  0.0602 -0.0093  0.6538
 1057SOL    HW2 4226   1.570   4.403   2.072 -0.0880  1.7148  0.0265
 1057SOL    HW3 4227   1.506   4.329   1.957  0.0065 -0.2730  1.2408
 1057SOL    MW4 4228   1.574   4.370   1.991  0.0335  0.1834  0.6485
 1058SOL     OW 4229   2.081   4.634   1.907 -0.3732  0.1075  0.5360
 1058SOL    HW2 4230   2.156   4.685   1.935 -0.1190 -0.0566  0.1593
 1058SOL    HW3 4231   2.094   4.548   1.946 -1.1684  0.5416  1.7610
 1058SOL    MW4 4232   2.092   4.629   1.916 -0.4446  0.1431  0.6480
 1059SOL     OW 4233   1.830   0.088   1.947  0.1265  0.3365  0.1187
 1059SOL    HW2 4234   1.815   0.092   2.041  0.0427 -0.7582  0.1650
 1059SOL    HW3 4235   1.908   0.032   1.938 -1.1541 -1.3981 -0.5487
 1059SOL    MW4 4236   1.838   0.081   1.958 -0.0535 -0.0368  0.0367
 1060SOL     OW 4237   1.836   0.366   1.857  0.1960 -0.1620  0.0659
 1060SOL    HW2 4238   1.833   0.277   1.891  1.5067  0.0622  0.7950
 1060SOL    HW3 4239   1.828   0.356   1.762 -0.2015 -1.0176  0.1896
 1060SOL    MW4 4240   1.835   0.353   1.849  0.3165 -0.2453  0.1785
 1061SOL     OW 4241   2.055   0.500   1.967 -0.2411  0.0351 -0.0855
 1061SOL    HW2 4242   2.028   0.577   1.918 -0.8033 -0.6729 -0.9012
 1061SOL    HW3 4243   1.993   0.432   1.941  0.4237 -0.7710  0.4030
 1061SOL    MW4 4244   2.043   0.501   1.957 -0.2275 -0.1647 -0.1287
 1062SOL     OW 4245   2.045   0.739   1.814 -0.2988  0.2359  0.2526
 1062SOL    HW2 4246   2.120   0.777   1.859 -0.2443 -1.1950  1.4221
 1062SOL    HW3 4247   2.068   0.740   1.722  1.6427 -1.2140  0.6895
 1062SOL    MW4 4248   2.058   0.744   1.808 -0.0355 -0.1442  0.4645
 1063SOL     OW 4249   1.824   0.885   1.937 -0.3076 -0.2401  0.3812
 1063SOL    HW2 4250   1.825   0.966   1.886 -1.4322  0.4946  1.4947
 1063SOL    HW3 4251   1.898   0.835   1.903 -0.4974  0.6103 -1.3522
 1063SOL    MW4 4252   1.834   0.889   1.925 -0.4810 -0.0310  0.2994
 1064SOL     OW 4253   1.831   1.147   1.816 -0.0636 -0.1823  0.6144
 1064SOL    HW2 4254   1.766   1.204   1.857 -1.1190 -1.0698  0.1806
 1064SOL    HW3 4255   1.819   1.160   1.722  0.6338 -0.0775  0.5361
 1064SOL    MW4 4256   1.821   1.156   1.809 -0.1108 -0.2856  0.5469
 1065SOL     OW 4257   2.059   1.254   1.925  0.3650  0.7081  0.0210
 1065SOL    HW2 4258   2.129   1.197   1.894 -1.1047 -1.5559  0.7175
 1065SOL    HW3 4259   1.979   1.215   1.890 -0.6825  2.3852  0.4885
 1065SOL    MW4 4260   2.058   1.241   1.916  0.0329  0.6307  0.1746
 1066SOL     OW 4261   2.050   1.528   1.878 -0.1742  0.0432  0.6415
 1066SOL    HW2 4262   2.053   1.435   1.901 -1.2347  0.3330  2.0729
 1066SOL    HW3 4263   2.046   1.529   1.783  1.3738 -1.3261  0.5325
 1066SOL    MW4 4264   2.050   1.516   1.869 -0.1099 -0.0992  0.8160
 1067SOL     OW 4265   1.824   1.673   1.987  0.0549 -0.3390 -0.1033
 1067SOL    HW2 4266   1.839   1.763   1.958 -1.5622 -0.2647 -0.7530
 1067SOL    HW3 4267   1.899   1.625   1.954  0.2938  0.5333 -0.8653
 1067SOL    MW4 4268   1.836   1.679   1.979 -0.1269 -0.2141 -0.2895
 1068SOL     OW 4269   1.820   1.940   1.897  0.2171  0.3703  0.1644
 1068SOL    HW2 4270   1.734   1.952   1.936  0.0034 -1.4082  0.2635
 1068SOL    HW3 4271   1.808   1.965   1.805 -0.2385  0.7519  0.3254
 1068SOL    MW4 4272   1.807   1.945   1.890  0.1288  0.1860  0.1987
 1069SOL     OW 4273   2.063   2.057   2.015  0.2682  0.6657  0.0611
 1069SOL    HW2 4274   2.139   2.015   1.975  0.7074  0.3673  1.1907
 1069SOL    HW3 4275   1.988   2.019   1.969  0.7965  1.2037 -1.2853
 1069SOL    MW4 4276   2.063   2.046   2.003  0.3958  0.6973  0.0325
 1070SOL     OW 4277   2.049   2.317   1.902  0.3981 -0.2684 -0.6027
 1070SOL    HW2 4278   2.131   2.351   1.936  0.6705 -0.2878 -1.2505
 1070SOL    HW3 4279   2.053   2.223   1.919  0.6460 -0.3155 -0.9216
 1070SOL    MW4 4280   2.060   2.309   1.909  0.4667 -0.2772 -0.7303
 1071SOL     OW 4281   1.825   2.430   2.000 -0.3013 -0.0513  0.4912
 1071SOL    HW2 4282   1.822   2.447   2.094  0.3831 -0.2351  0.5479
 1071SOL    HW3 4283   1.914   2.400   1.983  0.1472  1.7219 -0.5069
 1071SOL    MW4 4284   1.836   2.429   2.010 -0.1518  0.1584  0.3670
 1072SOL     OW 4285   1.801   2.687   1.930  0.1036  0.5490  0.3807
 1072SOL    HW2 4286   1.801   2.593   1.950 -0.9490  0.7300  1.2590
 1072SOL    HW3 4287   1.826   2.691   1.837 -1.7295 -0.7108 -0.1867
 1072SOL    MW4 4288   1.805   2.675   1.920 -0.2772  0.4067  0.4217
 1073SOL     OW 4289   2.005   2.849   2.016 -0.5086  0.0124 -0.1744
 1073SOL    HW2 4290   2.018   2.823   2.107 -0.9335  0.1520 -0.0739
 1073SOL    HW3 4291   1.924   2.807   1.989  0.7761 -1.8783 -1.2013
 1073SOL    MW4 4292   1.996   2.840   2.025 -0.3952 -0.2186 -0.2966
 1074SOL     OW 4293   1.996   3.089   1.894  0.0713  0.5191  0.3277
 1074SOL    HW2 4294   1.951   3.153   1.949 -1.8823  0.2350 -0.8798
 1074SOL    HW3 4295   1.980   3.005   1.938 -1.9945  0.2163 -0.9217
 1074SOL    MW4 4296   1.988   3.086   1.907 -0.4590  0.4417  0.0035
 1075SOL     OW 4297   1.809   3.281   2.011  0.4721 -0.1782  0.2714
 1075SOL    HW2 4298   1.803   3.281   2.106  0.1832  0.4095  0.2519
 1075SOL    HW3 4299   1.730   3.235   1.982  0.3151  0.0773  0.2968
 1075SOL    MW4 4300   1.798   3.275   2.020  0.4133 -0.0670  0.2722
 1076SOL     OW 4301   1.800   3.501   1.861 -0.0155 -0.5405  0.1201
 1076SOL    HW2 4302   1.809   3.415   1.903  1.0774  0.0222  1.0387
 1076SOL    HW3 4303   1.745   3.552   1.920 -2.1188 -1.1206 -1.2448
 1076SOL    MW4 4304   1.794   3.496   1.874 -0.1488 -0.5428  0.0612
 1077SOL     OW 4305   2.029   3.603   1.999 -0.5045 -0.0260 -0.0810
 1077SOL    HW2 4306   2.041   3.695   1.975  0.3621 -0.4278 -1.2373
 1077SOL    HW3 4307   1.954   3.575   1.946 -0.4272 -0.1311 -0.1339
 1077SOL    MW4 4308   2.020   3.612   1.989 -0.3800 -0.0929 -0.2405
 1078SOL     OW 4309   2.036   3.875   1.943  0.0323  0.2536  0.1075
 1078SOL    HW2 4310   2.127   3.900   1.960  0.1305  0.1705 -0.3127
 1078SOL    HW3 4311   2.027   3.878   1.848 -0.2870 -0.1551  0.1236
 1078SOL    MW4 4312   2.047   3.879   1.933  0.0032  0.1887  0.0542
 1079SOL     OW 4313   1.796   4.039   1.985 -0.2305 -0.1133  0.0218
 1079SOL    HW2 4314   1.803   4.125   1.943  0.0926  0.6806  1.6465
 1079SOL    HW3 4315   1.875   3.993   1.958  0.0588  0.4557 -0.1090
 1079SOL    MW4 4316   1.807   4.044   1.976 -0.1497  0.0665  0.2189
 1080SOL     OW 4317   1.828   4.271   1.844  0.1752 -0.4384 -0.1399
 1080SOL    HW2 4318   1.749   4.307   1.883 -0.3534 -1.2692 -0.4339
 1080SOL    HW3 4319   1.811   4.271   1.750  0.7915  0.0125 -0.2526
 1080SOL    MW4 4320   1.815   4.276   1.836  0.1868 -0.4885 -0.1936
 1081SOL     OW 4321   2.046   4.377   1.984  0.1151  0.4781  0.5243
 1081SOL    HW2 4322   2.125   4.327   1.969 -0.1323  0.2632 -0.0505
 1081SOL    HW3 4323   1.983   4.344   1.921 -0.0988  1.4022  0.2376
 1081SOL    MW4 4324   2.048   4.366   1.974  0.0542  0.5717  0.4107
 1082SOL     OW 4325   2.483   0.009   1.873 -0.3075  0.2657  0.4878
 1082SOL    HW2 4326   2.562   0.059   1.893  0.2218 -0.3714  0.0304
 1082SOL    HW3 4327   2.505  -0.081   1.899 -1.1233  0.2148  0.9909
 1082SOL    MW4 4328   2.496   0.004   1.879 -0.3453  0.1749  0.4938
 1083SOL     OW 4329   2.275   0.117   2.006  0.1701  0.3175  0.1826
 1083SOL    HW2 4330   2.272   0.086   2.097  0.5688 -0.0753  0.0625
 1083SOL    HW3 4331   2.348   0.070   1.967 -0.1176  0.3489 -0.3968
 1083SOL    MW4 4332   2.284   0.107   2.013  0.1847  0.2698  0.0904
 1084SOL     OW 4333   2.255   0.365   1.852  0.1877 -0.4985 -0.0160
 1084SOL    HW2 4334   2.258   0.284   1.903 -0.3972 -0.8263 -0.4944
 1084SOL    HW3 4335   2.187   0.418   1.894  0.8060 -0.1220  0.4999
 1084SOL    MW4 4336   2.246   0.361   1.864  0.1921 -0.4921 -0.0111
 1085SOL     OW 4337   2.482   0.474   2.004  0.3155 -0.2186  0.1695
 1085SOL    HW2 4338   2.553   0.452   1.944  0.4027  0.3310  0.0717
 1085SOL    HW3 4339   2.403   0.437   1.964  0.2972  0.5677 -0.5307
 1085SOL    MW4 4340   2.481   0.466   1.991  0.3246 -0.0423  0.0642
 1086SOL     OW 4341   2.509   0.750   1.947  0.0744 -0.6646  0.4641
 1086SOL    HW2 4342   2.502   0.656   1.962  0.6168 -0.6660  0.7301
 1086SOL    HW3 4343   2.525   0.759   1.853  1.1790 -0.9043  0.6219
 1086SOL    MW4 4344   2.511   0.739   1.937  0.2917 -0.6964  0.5200
 1087SOL     OW 4345   2.241   0.849   1.954  0.2076  0.7102  0.1568
 1087SOL    HW2 4346   2.212   0.840   2.045  2.2138 -1.0801  0.6491
 1087SOL    HW3 4347   2.331   0.818   1.955 -0.7171 -2.3686 -3.0369
 1087SOL    MW4 4348   2.249   0.844   1.967  0.3503  0.0678 -0.1996
 1088SOL     OW 4349   2.271   1.097   1.842 -0.1905  0.0719 -0.3172
 1088SOL    HW2 4350   2.337   1.153   1.883 -0.9117  1.0631 -0.4932
 1088SOL    HW3 4351   2.276   1.015   1.891  0.3380  0.5526  0.4578
 1088SOL    MW4 4352   2.281   1.094   1.854 -0.2159  0.2661 -0.2382
 1089SOL     OW 4353   2.476   1.249   1.972  0.0358 -0.0396  0.3373
 1089SOL    HW2 4354   2.496   1.254   2.066  0.2221  0.8241  0.2544
 1089SOL    HW3 4355   2.457   1.339   1.947  1.7189 -0.0045 -0.8367
 1089SOL    MW4 4356   2.476   1.261   1.981  0.2824  0.0790  0.1715
 1090SOL     OW 4357   2.462   1.497   1.859 -0.7303 -0.6051  0.6013
 1090SOL    HW2 4358   2.404   1.562   1.898  0.9045  1.3209 -0.0589
 1090SOL    HW3 4359   2.470   1.524   1.767 -0.2766 -1.9261  0.2408
 1090SOL    MW4 4360   2.455   1.509   1.852 -0.4547 -0.5253  0.4666
 1091SOL     OW 4361   2.276   1.654   1.962  0.2323 -0.1057  0.5905
 1091SOL    HW2 4362   2.257   1.669   2.055  0.1453 -1.2139  0.7537
 1091SOL    HW3 4363   2.204   1.600   1.931  0.1028  0.5138 -0.2062
 1091SOL    MW4 4364   2.264   1.649   1.970  0.2037 -0.1702  0.5069
 1092SOL     OW 4365   2.265   1.930   1.886 -0.1328  0.4302 -0.1994
 1092SOL    HW2 4366   2.325   1.981   1.941  0.3627  0.7427 -1.0227
 1092SOL    HW3 4367   2.278   1.839   1.915 -0.5046  0.6787  0.7829
 1092SOL    MW4 4368   2.275   1.924   1.897 -0.1164  0.5042 -0.1784
 1093SOL     OW 4369   2.455   2.102   2.000  0.0760 -0.4947  0.2305
 1093SOL    HW2 4370   2.537   2.058   1.977 -0.2147 -0.3845 -1.1153
 1093SOL    HW3 4371   2.461   2.187   1.956 -0.6670 -0.4057  0.2985
 1093SOL    MW4 4372   2.467   2.108   1.991 -0.0604 -0.4685  0.0619
 1094SOL     OW 4373   2.513   2.334   1.872 -0.0450  0.6772  0.2566
 1094SOL    HW2 4374   2.581   2.359   1.934 -0.1557 -0.8140  0.9863
 1094SOL    HW3 4375   2.434   2.380   1.903  0.4806  1.9835 -0.2882
 1094SOL    MW4 4376   2.512   2.343   1.884  0.0097  0.6528  0.2810
 1095SOL     OW 4377   2.288   2.431   1.989 -0.3744 -0.2740  0.4055
 1095SOL    HW2 4378   2.298   2.430   2.084  1.4054  1.2482  0.2623
 1095SOL    HW3 4379   2.257   2.520   1.969 -2.5091 -1.1568 -0.2768
 1095SOL    MW4 4380   2.285   2.443   1.999 -0.4212 -0.1896  0.2966
 1096SOL     OW 4381   2.220   2.684   1.911 -0.4765  0.0602 -0.4708
 1096SOL    HW2 4382   2.149   2.742   1.936 -1.0060 -0.7106 -0.1524
 1096SOL    HW3 4383   2.218   2.683   1.816 -0.5469  0.4594 -0.4730
 1096SOL    MW4 4384   2.211   2.691   1.902 -0.5557  0.0112 -0.4291
 1097SOL     OW 4385   2.442   2.825   2.003 -0.5858 -0.3049  0.3301
 1097SOL    HW2 4386   2.457   2.915   1.975  0.4925  0.0068  1.8225
 1097SOL    HW3 4387   2.368   2.795   1.951  0.1034  0.8905 -1.3661
 1097SOL    MW4 4388   2.434   2.833   1.993 -0.3526 -0.1060  0.3032
 1098SOL     OW 4389   2.496   3.075   1.915  0.4239  0.2539  0.5720
 1098SOL    HW2 4390   2.410   3.112   1.935  0.1860 -0.2490  0.4816
 1098SOL    HW3 4391   2.503   3.082   1.820  1.1339  1.7130  0.7115
 1098SOL    MW4 4392   2.486   3.081   1.905  0.4862  0.3801  0.5785
 1099SOL     OW 4393   2.264   3.193   1.978 -0.3296  0.1722 -0.0656
 1099SOL    HW2 4394   2.253   3.189   2.073 -0.0407  1.3110  0.0150
 1099SOL    HW3 4395   2.186   3.150   1.943 -0.8901  0.5925  0.6712
 1099SOL    MW4 4396   2.252   3.187   1.986 -0.3654  0.3779  0.0423
 1100SOL     OW 4397   2.258   3.470   1.898 -0.2375 -0.4085  0.6977
 1100SOL    HW2 4398   2.254   3.376   1.913 -1.3679 -0.6912 -1.1913
 1100SOL    HW3 4399   2.179   3.505   1.938  0.3231 -0.2034  1.6514
 1100SOL    MW4 4400   2.247   3.462   1.905 -0.3127 -0.4188  0.5743
 1101SOL     OW 4401   2.470   3.601   2.023  0.3114  0.0223 -0.7444
 1101SOL    HW2 4402   2.476   3.579   2.116  1.2062  1.3668 -0.4675
 1101SOL    HW3 4403   2.403   3.542   1.989 -0.8874  0.3114  1.0121
 1101SOL    MW4 4404   2.462   3.590   2.031  0.2713  0.2378 -0.4761
 1102SOL     OW 4405   2.490   3.835   1.885 -0.1863 -0.0787  0.2888
 1102SOL    HW2 4406   2.417   3.876   1.931 -0.9114 -0.4226 -0.5326
 1102SOL    HW3 4407   2.506   3.753   1.932  0.6718  0.7002  1.3817
 1102SOL    MW4 4408   2.483   3.829   1.897 -0.1687 -0.0213  0.3246
 1103SOL     OW 4409   2.301   3.983   1.976 -0.3158 -0.7826  0.2989
 1103SOL    HW2 4410   2.298   4.010   2.068  0.3972 -1.9313  0.6666
 1103SOL    HW3 4411   2.299   4.066   1.927 -0.6479 -0.1627  1.3398
 1103SOL    MW4 4412   2.301   3.998   1.982 -0.2655 -0.8523  0.4847
 1104SOL     OW 4413   2.282   4.257   1.885 -0.2411 -0.2178  0.6340
 1104SOL    HW2 4414   2.354   4.316   1.906  0.7710 -1.4175  0.6213
 1104SOL    HW3 4415   2.263   4.275   1.793  0.9494 -0.7963  0.2488
 1104SOL    MW4 4416   2.289   4.267   1.876  0.0495 -0.4524  0.5815
 1105SOL     OW 4417   2.515   4.423   1.961  0.6068 -0.3312  0.2111
 1105SOL    HW2 4418   2.516   4.413   2.056 -0.2378 -1.4681  0.1119
 1105SOL    HW3 4419   2.579   4.360   1.930 -0.2315 -1.0566 -0.0593
 1105SOL    MW4 4420   2.524   4.414   1.970  0.3847 -0.5769  0.1623
 1106SOL     OW 4421   2.910   4.630   1.870 -0.6228  0.2721  0.0832
 1106SOL    HW2 4422   2.994   4.669   1.895  0.0761 -0.0435 -1.7147
 1106SOL    HW3 4423   2.914   4.540   1.904 -0.5886  0.5035  0.7061
 1106SOL    MW4 4424   2.921   4.623   1.878 -0.5261  0.2610 -0.0718
 1107SOL     OW 4425   2.694   0.138   1.966 -0.3007 -0.2845  0.4064
 1107SOL    HW2 4426   2.719   0.130   2.058  0.1872 -0.0658  0.2909
 1107SOL    HW3 4427   2.757   0.082   1.920  0.2270  0.5767  0.0761
 1107SOL    MW4 4428   2.706   0.129   1.972 -0.1667 -0.1420  0.3476
 1108SOL     OW 4429   2.700   0.383   1.842  0.3954 -0.0449 -0.2379
 1108SOL    HW2 4430   2.777   0.434   1.866 -0.2503  0.0961  1.5916
 1108SOL    HW3 4431   2.712   0.299   1.886  0.5801 -0.8373 -1.7748
 1108SOL    MW4 4432   2.712   0.378   1.851  0.3345 -0.1308 -0.1993
 1109SOL     OW 4433   2.915   0.498   1.951  0.2777  0.2975 -0.3689
 1109SOL    HW2 4434   2.996   0.453   1.926 -0.2676 -0.5362 -0.6463
 1109SOL    HW3 4435   2.917   0.580   1.901  0.3589 -0.2712 -1.3024
 1109SOL    MW4 4436   2.926   0.503   1.941  0.2165  0.1125 -0.5287
 1110SOL     OW 4437   2.952   0.757   1.852  0.3084  0.1518  0.7551
 1110SOL    HW2 4438   3.030   0.784   1.899  1.6141 -0.3089 -1.0783
 1110SOL    HW3 4439   2.881   0.808   1.891  1.2945 -0.4266  3.3545
 1110SOL    MW4 4440   2.953   0.767   1.863  0.6108  0.0147  0.8562
 1111SOL     OW 4441   2.763   0.874   2.022  0.3417  0.1060  0.1668
 1111SOL    HW2 4442   2.735   0.963   2.002  0.6403  0.0527 -0.5056
 1111SOL    HW3 4443   2.692   0.818   1.990  0.5311  0.0566 -0.1703
 1111SOL    MW4 4444   2.750   0.878   2.015  0.4061  0.0925  0.0336
 1112SOL     OW 4445   2.716   1.121   1.902  0.5455 -0.3613  0.0866
 1112SOL    HW2 4446   2.638   1.165   1.935  0.0646 -1.4044  0.3551
 1112SOL    HW3 4447   2.716   1.139   1.808  0.5434  0.4941  0.2506
 1112SOL    MW4 4448   2.706   1.129   1.894  0.4818 -0.3860  0.1437
 1113SOL     OW 4449   2.944   1.239   1.977  0.1777 -0.3090  0.5598
 1113SOL    HW2 4450   2.925   1.324   1.937  0.4529 -1.0439 -1.1803
 1113SOL    HW3 4451   2.876   1.181   1.941  1.1782 -1.2582  0.1760
 1113SOL    MW4 4452   2.932   1.242   1.967  0.3460 -0.5312  0.2796
 1114SOL     OW 4453   2.913   1.491   1.898  0.0838 -0.3639 -0.5811
 1114SOL    HW2 4454   2.989   1.541   1.927 -2.0860  2.2228  0.8990
 1114SOL    HW3 4455   2.914   1.498   1.803  1.0637  0.6277 -0.4990
 1114SOL    MW4 4456   2.923   1.498   1.890 -0.0732  0.1082 -0.3750
 1115SOL     OW 4457   2.673   1.663   1.959  0.1065 -0.2110  0.0486
 1115SOL    HW2 4458   2.758   1.629   1.933  0.1521 -0.2695  0.2776
 1115SOL    HW3 4459   2.613   1.590   1.945  0.0645 -0.1189 -0.2697
 1115SOL    MW4 4460   2.676   1.649   1.954  0.1069 -0.2065  0.0368
 1116SOL     OW 4461   2.665   1.950   1.919  0.5624  0.0260  0.1804
 1116SOL    HW2 4462   2.753   1.979   1.943  1.4425 -1.3891 -1.2163
 1116SOL    HW3 4463   2.661   1.860   1.951 -0.1182 -0.1545 -0.4204
 1116SOL    MW4 4464   2.676   1.942   1.926  0.5887 -0.1846 -0.0832
 1117SOL     OW 4465   2.909   2.047   1.999  0.3778  0.1671  0.0289
 1117SOL    HW2 4466   2.923   2.051   2.093 -0.6281 -0.5638  0.2129
 1117SOL    HW3 4467   2.980   1.992   1.966 -1.1687 -2.3239  0.7744
 1117SOL    MW4 4468   2.920   2.040   2.007  0.0410 -0.2580  0.1516
 1118SOL     OW 4469   2.960   2.314   1.900 -0.0472 -0.2404  0.2717
 1118SOL    HW2 4470   3.038   2.362   1.928  0.8770 -2.4752  1.6758
 1118SOL    HW3 4471   2.973   2.225   1.933 -3.0707 -0.7341  0.2941
 1118SOL    MW4 4472   2.972   2.309   1.908 -0.3242 -0.6004  0.4599
 1119SOL     OW 4473   2.723   2.440   2.013  0.1353 -0.0722  0.4515
 1119SOL    HW2 4474   2.715   2.530   1.979  1.4372 -0.0262  0.2205
 1119SOL    HW3 4475   2.808   2.411   1.980 -0.2617 -1.3705  0.5827
 1119SOL    MW4 4476   2.734   2.448   2.004  0.2547 -0.2375  0.4384
 1120SOL     OW 4477   2.680   2.716   1.918 -0.2034  0.1594 -0.4770
 1120SOL    HW2 4478   2.593   2.755   1.930 -0.1197 -0.3126  1.7716
 1120SOL    HW3 4479   2.689   2.708   1.823 -2.2355  1.0793 -0.7760
 1120SOL    MW4 4480   2.669   2.720   1.907 -0.4604  0.2185 -0.2198
 1121SOL     OW 4481   2.941   2.836   2.013  0.4986  0.1775 -0.5471
 1121SOL    HW2 4482   2.924   2.927   1.986  0.2353  0.3763  0.2766
 1121SOL    HW3 4483   2.862   2.789   1.988  0.7998  0.0808 -1.3577
 1121SOL    MW4 4484   2.928   2.842   2.006  0.5036  0.1910 -0.5454
 1122SOL     OW 4485   2.920   3.087   1.909  0.2950  0.3502 -0.2044
 1122SOL    HW2 4486   3.011   3.114   1.917  0.6246 -0.9775  0.6983
 1122SOL    HW3 4487   2.872   3.144   1.969  0.4990  1.1387 -0.7794
 1122SOL    MW4 4488   2.926   3.098   1.918  0.3654  0.2791 -0.1612
 1123SOL     OW 4489   2.691   3.254   2.015 -0.1142  0.0386 -0.4874
 1123SOL    HW2 4490   2.693   3.333   1.960 -1.9201  0.4978  0.0914
 1123SOL    HW3 4491   2.626   3.197   1.973 -1.1574  0.1926  0.9006
 1123SOL    MW4 4492   2.683   3.257   2.002 -0.4901  0.1195 -0.2279
 1124SOL     OW 4493   2.697   3.481   1.869 -0.2501 -0.1615  0.0586
 1124SOL    HW2 4494   2.773   3.509   1.919 -0.9396  3.1736 -0.6529
 1124SOL    HW3 4495   2.622   3.512   1.919 -1.1288 -2.0188 -0.0584
 1124SOL    MW4 4496   2.697   3.489   1.882 -0.4570  0.0335 -0.0507
 1125SOL     OW 4497   2.905   3.560   2.031 -0.1803  0.1270 -0.1870
 1125SOL    HW2 4498   2.902   3.544   2.126  1.0220  1.1554  0.0404
 1125SOL    HW3 4499   2.996   3.540   2.007 -0.5625 -0.4394 -1.1905
 1125SOL    MW4 4500   2.917   3.555   2.040 -0.0721  0.1880 -0.2894
 1126SOL     OW 4501   2.895   3.822   1.923 -0.2828  0.2410  0.1228
 1126SOL    HW2 4502   2.912   3.731   1.948  3.6315  0.8272 -0.0665
 1126SOL    HW3 4503   2.892   3.821   1.827 -0.1432  0.3081  0.1169
 1126SOL    MW4 4504   2.897   3.810   1.913  0.2520  0.3272  0.0970
 1127SOL     OW 4505   2.667   3.965   2.039  0.1670 -0.1289 -0.0313
 1127SOL    HW2 4506   2.745   3.921   2.005  0.3596  0.3064 -0.1499
 1127SOL    HW3 4507   2.596   3.935   1.983  0.2741 -0.4056 -0.0194
 1127SOL    MW4 4508   2.668   3.955   2.027  0.2065 -0.1080 -0.0454
 1128SOL     OW 4509   2.690   4.209   1.893  0.0163  0.6034 -0.4533
 1128SOL    HW2 4510   2.677   4.127   1.940 -1.1555  0.8358 -0.3531
 1128SOL    HW3 4511   2.687   4.184   1.801 -0.5434  0.5667 -0.4240
 1128SOL    MW4 4512   2.688   4.195   1.887 -0.2122  0.6292 -0.4362
 1129SOL     OW 4513   2.919   4.378   1.971  0.4685  0.3106 -0.4710
 1129SOL    HW2 4514   2.908   4.389   2.065  0.7116  2.3803 -0.6682
 1129SOL    HW3 4515   2.850   4.317   1.946 -0.8137  1.2361  0.7466
 1129SOL    MW4 4516   2.908   4.372   1.980  0.3314  0.7058 -0.3364
 1130SOL     OW 4517   3.367   4.655   1.829  0.0447 -0.0193  0.0997
 1130SOL    HW2 4518   3.349   4.573   1.874 -1.0352  0.6577  0.9216
 1130SOL    HW3 4519   3.332   4.643   1.741  3.1747 -1.7641 -0.9942
 1130SOL    MW4 4520   3.360   4.643   1.823  0.3152 -0.1602  0.0638
 1131SOL     OW 4521   3.140   0.123   1.934 -0.3174 -0.8831 -0.4085
 1131SOL    HW2 4522   3.153   0.103   2.027  0.1934  1.2003 -0.0139
 1131SOL    HW3 4523   3.220   0.092   1.891  0.5563  0.4585  0.2274
 1131SOL    MW4 4524   3.152   0.116   1.940 -0.1348 -0.4312 -0.2725
 1132SOL     OW 4525   3.141   0.393   1.876 -0.8343 -0.1847  0.2764
 1132SOL    HW2 4526   3.151   0.303   1.907 -0.7077 -0.3876 -0.3376
 1132SOL    HW3 4527   3.140   0.385   1.780  1.4996  0.6770  0.1363
 1132SOL    MW4 4528   3.142   0.380   1.867 -0.5097 -0.0978  0.1769
 1133SOL     OW 4529   3.347   0.532   1.985 -0.1088  0.1718  0.0038
 1133SOL    HW2 4530   3.415   0.476   1.947  0.5787  0.4861  0.7499
 1133SOL    HW3 4531   3.265   0.486   1.968  0.4125 -0.8449  0.2271
 1133SOL    MW4 4532   3.346   0.519   1.978  0.0507  0.0791  0.1317
 1134SOL     OW 4533   3.397   0.822   1.895  0.4566  0.1255  0.2062
 1134SOL    HW2 4534   3.310   0.858   1.911  0.7822  0.4208  1.3882
 1134SOL    HW3 4535   3.398   0.740   1.944  0.6175 -0.1975 -0.3366
 1134SOL    MW4 4536   3.386   0.816   1.904  0.5208  0.1219  0.2906
 1135SOL     OW 4537   3.157   0.922   1.967  0.4992  0.0967  0.3173
 1135SOL    HW2 4538   3.145   0.922   2.062  0.1796  1.0214  0.2712
 1135SOL    HW3 4539   3.162   1.014   1.943  0.2848 -0.1310 -0.6068
 1135SOL    MW4 4540   3.156   0.934   1.976  0.4287  0.1887  0.1893
 1136SOL     OW 4541   3.150   1.169   1.820 -0.5398 -0.1789  0.0073
 1136SOL    HW2 4542   3.225   1.208   1.865 -0.6280 -0.2361  0.2022
 1136SOL    HW3 4543   3.075   1.189   1.876 -0.5801 -0.6576  0.1270
 1136SOL    MW4 4544   3.150   1.177   1.833 -0.5568 -0.2496  0.0488
 1137SOL     OW 4545   3.377   1.275   1.960 -0.2798 -0.4712 -0.3378
 1137SOL    HW2 4546   3.357   1.260   2.053 -0.2959 -0.8036 -0.3950
 1137SOL    HW3 4547   3.358   1.368   1.947 -0.4902 -0.4718 -0.0598
 1137SOL    MW4 4548   3.372   1.285   1.971 -0.3097 -0.5152 -0.3087
 1138SOL     OW 4549   3.330   1.539   1.886 -0.1525 -0.4653 -0.1313
 1138SOL    HW2 4550   3.413   1.572   1.919 -0.2619  0.4006 -0.7014
 1138SOL    HW3 4551   3.264   1.602   1.918 -0.4489 -0.5332 -0.5955
 1138SOL    MW4 4552   3.332   1.552   1.895 -0.2060 -0.3600 -0.2678
 1139SOL     OW 4553   3.114   1.672   2.008 -0.0626 -0.3304 -0.2406
 1139SOL    HW2 4554   3.125   1.669   2.104 -0.4775 -0.7267 -0.2094
 1139SOL    HW3 4555   3.142   1.761   1.985 -1.8653  0.4513  0.4884
 1139SOL    MW4 4556   3.119   1.684   2.018 -0.3552 -0.2796 -0.1403
 1140SOL     OW 4557   3.151   1.924   1.909  0.3086 -0.1226 -0.3474
 1140SOL    HW2 4558   3.221   1.982   1.939 -1.0532  1.1838  0.4285
 1140SOL    HW3 4559   3.149   1.934   1.814 -0.6250  1.9977 -0.1331
 1140SOL    MW4 4560   3.160   1.933   1.901  0.0057  0.3295 -0.2168
 1141SOL     OW 4561   3.372   2.067   1.995  0.2435  0.0175  0.0492
 1141SOL    HW2 4562   3.451   2.016   1.976  0.9966  0.3647  2.0489
 1141SOL    HW3 4563   3.388   2.152   1.954  0.1226 -0.5080 -1.0814
 1141SOL    MW4 4564   3.385   2.072   1.987  0.3269 -0.0061  0.1639
 1142SOL     OW 4565   3.404   2.318   1.881  0.4585 -0.5600 -0.3064
 1142SOL    HW2 4566   3.327   2.364   1.913  2.3422  0.4714  2.9252
 1142SOL    HW3 4567   3.408   2.340   1.788 -1.3355  1.9570  0.1613
 1142SOL    MW4 4568   3.395   2.327   1.873  0.4704 -0.0918  0.1817
 1143SOL     OW 4569   3.191   2.457   1.965  0.4204  0.1411  0.2243
 1143SOL    HW2 4570   3.194   2.452   2.061 -1.0008  0.9543  0.3364
 1143SOL    HW3 4571   3.196   2.551   1.947  1.3476 -0.0571 -0.5262
 1143SOL    MW4 4572   3.192   2.469   1.975  0.3553  0.2222  0.1401
 1144SOL     OW 4573   3.168   2.736   1.914 -0.0627 -0.1373 -0.1226
 1144SOL    HW2 4574   3.090   2.777   1.950 -0.4259  0.3658 -1.4331
 1144SOL    HW3 4575   3.151   2.730   1.820  1.5568  0.2006 -0.4630
 1144SOL    MW4 4576   3.156   2.741   1.906  0.1031 -0.0263 -0.3404
 1145SOL     OW 4577   3.424   2.842   1.969  0.5052 -0.2169 -0.0752
 1145SOL    HW2 4578   3.433   2.841   2.064 -1.3318  1.5041  0.1374
 1145SOL    HW3 4579   3.335   2.810   1.953 -0.1823  2.0726 -1.0472
 1145SOL    MW4 4580   3.413   2.838   1.979  0.1721  0.3123 -0.1754
 1146SOL     OW 4581   3.397   3.076   1.838 -0.5309  0.4833  0.1585
 1146SOL    HW2 4582   3.465   3.132   1.876 -1.0686  1.1392  0.1717
 1146SOL    HW3 4583   3.423   2.987   1.861 -0.1798  0.7947  0.9832
 1146SOL    MW4 4584   3.410   3.071   1.846 -0.5555  0.6109  0.2691
 1147SOL     OW 4585   3.186   3.186   1.987  0.5282  0.6008 -0.4320
 1147SOL    HW2 4586   3.192   3.279   1.964  0.3077  0.8641  0.5574
 1147SOL    HW3 4587   3.246   3.142   1.926  1.8831  1.5833  0.1704
 1147SOL    MW4 4588   3.195   3.192   1.976  0.6779  0.7651 -0.2220
 1148SOL     OW 4589   3.150   3.459   1.928 -0.0965  0.0334 -0.0746
 1148SOL    HW2 4590   3.238   3.491   1.946 -0.4767  0.1700  1.5547
 1148SOL    HW3 4591   3.146   3.455   1.832  1.4662  0.5923 -0.1830
 1148SOL    MW4 4592   3.161   3.463   1.918  0.0595  0.1252  0.1261
 1149SOL     OW 4593   3.407   3.538   2.007 -0.2850  0.1272 -0.5832
 1149SOL    HW2 4594   3.500   3.523   1.993 -0.1241  0.5041  0.0906
 1149SOL    HW3 4595   3.391   3.625   1.970 -0.3136  0.1696 -0.4730
 1149SOL    MW4 4596   3.417   3.547   2.000 -0.2676  0.1825 -0.4798
 1150SOL     OW 4597   3.348   3.801   1.874  0.0515  0.0302  0.3817
 1150SOL    HW2 4598   3.294   3.875   1.901  1.6557  1.2587  0.3089
 1150SOL    HW3 4599   3.360   3.814   1.780  1.2143  0.2940  0.5516
 1150SOL    MW4 4600   3.342   3.813   1.865  0.4166  0.2271  0.3945
 1151SOL     OW 4601   3.142   3.982   1.970 -0.3404  0.1663  0.2718
 1151SOL    HW2 4602   3.159   3.956   2.060  1.5329  0.4027 -0.0048
 1151SOL    HW3 4603   3.066   3.929   1.944 -1.0061  0.2313  2.0162
 1151SOL    MW4 4604   3.134   3.972   1.978 -0.1810  0.2060  0.4655
 1152SOL     OW 4605   3.151   4.249   1.859  0.2128 -0.1056 -0.0834
 1152SOL    HW2 4606   3.157   4.160   1.894  1.2016  0.2282  0.6183
 1152SOL    HW3 4607   3.075   4.287   1.903 -0.8234 -0.9214 -1.1323
 1152SOL    MW4 4608   3.142   4.242   1.869  0.2065 -0.1692 -0.1292
 1153SOL     OW 4609   3.344   4.410   1.957 -0.4818  0.2233 -0.1902
 1153SOL    HW2 4610   3.427   4.364   1.944 -0.1774  0.8956 -0.6037
 1153SOL    HW3 4611   3.279   4.353   1.916  0.0388  0.7122 -1.6912
 1153SOL    MW4 4612   3.346   4.396   1.950 -0.3729  0.3765 -0.4428
 1154SOL     OW 4613   3.831   4.658   1.893  0.1710 -0.6154  0.0828
 1154SOL    HW2 4614   3.822   4.570   1.931  0.2204 -0.3360  0.7578
 1154SOL    HW3 4615   3.746   4.699   1.910  0.5578 -0.1269  0.8341
 1154SOL    MW4 4616   3.818   4.652   1.900  0.2285 -0.5141  0.2710
 1155SOL     OW 4617   3.589   0.102   1.958 -0.7718 -0.6636  0.1615
 1155SOL    HW2 4618   3.572   0.067   2.045  0.4968 -1.9017 -0.0700
 1155SOL    HW3 4619   3.525   0.059   1.901  0.1548 -1.9339  0.0446
 1155SOL    MW4 4620   3.579   0.092   1.962 -0.4822 -0.9945  0.1156
 1156SOL     OW 4621   3.534   0.359   1.857  0.2113 -0.4614  0.4583
 1156SOL    HW2 4622   3.561   0.270   1.882  0.7399 -0.2979  0.4775
 1156SOL    HW3 4623   3.555   0.365   1.764  2.3805  0.4445  0.9783
 1156SOL    MW4 4624   3.540   0.348   1.848  0.5672 -0.3203  0.5294
 1157SOL     OW 4625   3.813   0.482   2.010 -0.8738  0.2271 -0.0961
 1157SOL    HW2 4626   3.836   0.570   1.982 -0.8524  0.6795  1.3151
 1157SOL    HW3 4627   3.739   0.458   1.954 -0.7366  1.0496 -0.6354
 1157SOL    MW4 4628   3.806   0.490   1.999 -0.8529  0.3953  0.0189
 1158SOL     OW 4629   3.850   0.743   1.884  0.7593  0.2430 -0.2185
 1158SOL    HW2 4630   3.768   0.791   1.894  0.5233 -0.5423  1.9095
 1158SOL    HW3 4631   3.870   0.747   1.790 -1.5048  0.7413 -0.6906
 1158SOL    MW4 4632   3.842   0.750   1.873  0.4294  0.2052  0.0000
 1159SOL     OW 4633   3.643   0.905   1.976 -0.2162 -0.2919 -0.1396
 1159SOL    HW2 4634   3.644   0.997   1.949  0.4203 -0.0496  0.6672
 1159SOL    HW3 4635   3.556   0.873   1.953 -0.9501  0.9214  0.8957
 1159SOL    MW4 4636   3.632   0.913   1.970 -0.2291 -0.0999  0.1034
 1160SOL     OW 4637   3.609   1.161   1.909 -0.7073 -0.5123 -0.2511
 1160SOL    HW2 4638   3.525   1.193   1.942  0.6101  0.6269  2.0651
 1160SOL    HW3 4639   3.605   1.177   1.815 -2.4334  1.0291  0.0517
 1160SOL    MW4 4640   3.597   1.167   1.901 -0.7613 -0.1586  0.0944
 1161SOL     OW 4641   3.850   1.284   1.965 -0.3385  0.1396  0.2330
 1161SOL    HW2 4642   3.861   1.280   2.060  0.0390  1.1613  0.2392
 1161SOL    HW3 4643   3.761   1.254   1.950 -0.3348 -0.2158  0.8916
 1161SOL    MW4 4644   3.840   1.280   1.975 -0.2882  0.2275  0.3207
 1162SOL     OW 4645   3.792   1.547   1.893 -0.2159  0.1862 -0.3270
 1162SOL    HW2 4646   3.874   1.592   1.912  0.1368 -0.3161 -0.6654
 1162SOL    HW3 4647   3.810   1.454   1.908  0.3431 -0.3468 -3.9120
 1162SOL    MW4 4648   3.805   1.541   1.898 -0.0956  0.0496 -0.8446
 1163SOL     OW 4649   3.562   1.627   2.016 -0.1589  0.0441 -0.1911
 1163SOL    HW2 4650   3.574   1.720   1.993  1.4267 -0.1830 -0.3423
 1163SOL    HW3 4651   3.636   1.583   1.974 -0.5174 -1.1958  0.4809
 1163SOL    MW4 4652   3.573   1.634   2.007  0.0030 -0.1495 -0.1224
 1164SOL     OW 4653   3.598   1.920   1.936 -0.0250 -0.3794  0.3186
 1164SOL    HW2 4654   3.675   1.968   1.967 -0.5763 -0.1721  1.4022
 1164SOL    HW3 4655   3.598   1.932   1.841 -0.9072  2.9230  0.6964
 1164SOL    MW4 4656   3.608   1.928   1.927 -0.2141  0.0837  0.5114
 1165SOL     OW 4657   3.832   2.062   2.001 -0.3331  0.1069 -0.0125
 1165SOL    HW2 4658   3.910   2.012   1.974  0.1186  0.1811  1.0873
 1165SOL    HW3 4659   3.841   2.146   1.957 -0.2923 -0.2346 -0.6610
 1165SOL    MW4 4660   3.844   2.066   1.992 -0.2681  0.0716  0.0470
 1166SOL     OW 4661   3.861   2.317   1.905  0.0173 -0.2749 -0.1331
 1166SOL    HW2 4662   3.941   2.364   1.928 -0.1014 -0.4429  0.6510
 1166SOL    HW3 4663   3.790   2.372   1.939 -0.1244 -0.9610  0.6960
 1166SOL    MW4 4664   3.862   2.331   1.913 -0.0170 -0.3876  0.0798
 1167SOL     OW 4665   3.629   2.440   1.980  0.0819 -0.0627  0.4268
 1167SOL    HW2 4666   3.639   2.531   1.953  1.3176 -0.5652 -0.8801
 1167SOL    HW3 4667   3.548   2.411   1.938  0.1777  0.1695  0.0789
 1167SOL    MW4 4668   3.619   2.448   1.971  0.2576 -0.0984  0.2085
 1168SOL     OW 4669   3.645   2.708   1.907  0.0893 -0.2704 -0.2752
 1168SOL    HW2 4670   3.723   2.753   1.941 -0.6835  0.9866 -0.1335
 1168SOL    HW3 4671   3.573   2.766   1.931 -0.6802 -0.3932 -2.2854
 1168SOL    MW4 4672   3.646   2.722   1.915 -0.1142 -0.1207 -0.5217
 1169SOL     OW 4673   3.878   2.848   1.989 -0.1932 -0.5915 -0.2158
 1169SOL    HW2 4674   3.866   2.872   2.081  0.5123 -0.8060 -0.0638
 1169SOL    HW3 4675   3.889   2.932   1.944  0.1961 -0.5240  0.0038
 1169SOL    MW4 4676   3.878   2.862   1.995 -0.0488 -0.6109 -0.1668
 1170SOL     OW 4677   3.864   3.106   1.880  0.4175 -0.3750 -0.5103
 1170SOL    HW2 4678   3.781   3.139   1.914  1.2653  1.2850  0.0470
 1170SOL    HW3 4679   3.858   3.118   1.785 -1.3198 -3.5124 -0.8489
 1170SOL    MW4 4680   3.853   3.112   1.872  0.3002 -0.5700 -0.4815
 1171SOL     OW 4681   3.615   3.225   1.950  0.3173 -0.2147  0.4273
 1171SOL    HW2 4682   3.613   3.212   2.045  0.3728 -0.1829  0.4325
 1171SOL    HW3 4683   3.623   3.319   1.939 -1.6510 -0.0260  0.3805
 1171SOL    MW4 4684   3.616   3.235   1.961  0.0649 -0.1856  0.4218
 1172SOL     OW 4685   3.651   3.486   1.911 -0.1951  0.4479  0.2582
 1172SOL    HW2 4686   3.724   3.533   1.951 -0.4597  1.0641  0.0236
 1172SOL    HW3 4687   3.645   3.523   1.823 -1.8769  1.6181  0.8405
 1172SOL    MW4 4688   3.660   3.497   1.905 -0.4519  0.6836  0.3040
 1173SOL     OW 4689   3.872   3.630   2.017  0.5004 -0.0999  0.2397
 1173SOL    HW2 4690   3.948   3.580   1.988  0.4254 -0.0440 -0.0579
 1173SOL    HW3 4691   3.872   3.708   1.962 -0.6522 -0.8351 -0.8470
 1173SOL    MW4 4692   3.882   3.634   2.006  0.3385 -0.1895  0.0571
 1174SOL     OW 4693   3.834   3.870   1.871 -0.2194  0.6828 -0.2220
 1174SOL    HW2 4694   3.748   3.897   1.903 -0.2368  0.1594  0.1874
 1174SOL    HW3 4695   3.833   3.892   1.777 -0.7517  0.7866 -0.1939
 1174SOL    MW4 4696   3.822   3.876   1.862 -0.2919  0.6275 -0.1642
 1175SOL     OW 4697   3.591   3.967   1.949  0.2716 -0.3477  0.1727
 1175SOL    HW2 4698   3.565   3.976   2.041  1.2811  0.1424  0.4117
 1175SOL    HW3 4699   3.515   3.925   1.907 -1.0856  1.4708  0.7658
 1175SOL    MW4 4700   3.577   3.962   1.956  0.2257 -0.0431  0.2825
 1176SOL     OW 4701   3.575   4.258   1.924 -0.1524  0.6472  0.0765
 1176SOL    HW2 4702   3.662   4.297   1.933 -0.0245  0.0961  1.2576
 1176SOL    HW3 4703   3.590   4.164   1.930 -0.8808  0.5684  0.7357
 1176SOL    MW4 4704   3.589   4.251   1.926 -0.2316  0.5641  0.3193
 1177SOL     OW 4705   3.807   4.381   1.972 -0.0341  0.0348  0.3853
 1177SOL    HW2 4706   3.816   4.381   2.068  0.1334 -1.2332  0.3884
 1177SOL    HW3 4707   3.888   4.341   1.941  0.4088  1.4939 -0.3606
 1177SOL    MW4 4708   3.819   4.376   1.981  0.0464  0.0600  0.2873
 1178SOL     OW 4709   4.279   0.005   1.849  0.4813 -0.5295  0.3475
 1178SOL    HW2 4710   4.204   0.032   1.902 -0.3297 -2.1132  0.0225
 1178SOL    HW3 4711   4.354   0.047   1.892 -0.4203 -0.0171  1.4550
 1178SOL    MW4 4712   4.279   0.014   1.862  0.2553 -0.6708  0.4507
 1179SOL     OW 4713   4.073   0.084   2.004 -0.3326 -0.0547 -0.2687
 1179SOL    HW2 4714   4.062   0.103   2.097 -0.1732  0.4058 -0.3417
 1179SOL    HW3 4715   3.987   0.052   1.976 -0.5087  0.2335 -0.0634
 1179SOL    MW4 4716   4.060   0.082   2.012 -0.3348  0.0441 -0.2512
 1180SOL     OW 4717   4.034   0.331   1.900  0.7048  0.0266  0.2457
 1180SOL    HW2 4718   4.024   0.238   1.922 -0.3099  0.3326  1.1340
 1180SOL    HW3 4719   3.957   0.373   1.938 -0.0376  0.9071 -2.1342
 1180SOL    MW4 4720   4.023   0.324   1.908  0.4730  0.1831  0.0489
 1181SOL     OW 4721   4.270   0.482   1.966 -0.3070  0.3013 -0.2617
 1181SOL    HW2 4722   4.276   0.486   2.061 -1.7629  0.7253 -0.1740
 1181SOL    HW3 4723   4.200   0.419   1.949  0.6031 -0.5241 -1.0880
 1181SOL    MW4 4724   4.262   0.474   1.976 -0.3790  0.2484 -0.3591
 1182SOL     OW 4725   4.287   0.764   1.916  0.2841  0.1373  0.1658
 1182SOL    HW2 4726   4.285   0.674   1.947  2.1756  0.0736  0.1652
 1182SOL    HW3 4727   4.291   0.757   1.821  0.8354  0.2055  0.1818
 1182SOL    MW4 4728   4.287   0.751   1.908  0.6064  0.1379  0.1678
 1183SOL     OW 4729   4.053   0.885   2.004 -0.0506 -0.3728 -0.1757
 1183SOL    HW2 4730   4.131   0.831   1.990  0.3993 -0.4048  2.2719
 1183SOL    HW3 4731   3.984   0.840   1.955  1.4269 -0.3783 -2.3237
 1183SOL    MW4 4732   4.054   0.872   1.996  0.2037 -0.3777 -0.1362
 1184SOL     OW 4733   4.081   1.138   1.900 -0.9023 -0.0233 -0.5551
 1184SOL    HW2 4734   4.069   1.049   1.933  0.9856  0.1363  0.6354
 1184SOL    HW3 4735   3.995   1.180   1.913 -0.9170 -0.7273  1.8267
 1184SOL    MW4 4736   4.068   1.132   1.906 -0.6552 -0.0951 -0.0837
 1185SOL     OW 4737   4.288   1.280   2.012 -0.0981 -0.0219 -0.5889
 1185SOL    HW2 4738   4.271   1.282   2.106  0.5918 -0.4623 -0.4500
 1185SOL    HW3 4739   4.211   1.238   1.974 -0.9429  1.2908 -0.3600
 1185SOL    MW4 4740   4.276   1.275   2.019 -0.1185  0.0932 -0.5404
 1186SOL     OW 4741   4.270   1.541   1.901  0.1674 -0.1080  0.2730
 1186SOL    HW2 4742   4.268   1.451   1.933  2.1124  0.0502  0.9261
 1186SOL    HW3 4743   4.277   1.532   1.806  0.6319 -0.6609  0.3564
 1186SOL    MW4 4744   4.271   1.528   1.892  0.4853 -0.1601  0.3702
 1187SOL     OW 4745   4.036   1.659   1.976  0.5256 -0.3804 -0.3320
 1187SOL    HW2 4746   4.045   1.647   2.070  2.2067  0.3856 -0.3859
 1187SOL    HW3 4747   4.113   1.617   1.938 -1.2037 -2.5853 -1.5464
 1187SOL    MW4 4748   4.047   1.652   1.983  0.5192 -0.5702 -0.4994
 1188SOL     OW 4749   4.058   1.947   1.912 -0.2855 -0.4737  0.2943
 1188SOL    HW2 4750   4.047   1.853   1.927  0.0167 -0.5911 -0.2272
 1188SOL    HW3 4751   4.037   1.959   1.820  0.8197 -0.2019  0.0769
 1188SOL    MW4 4752   4.054   1.936   1.902 -0.0998 -0.4533  0.1968
 1189SOL     OW 4753   4.270   2.055   2.034  0.2894  0.4900 -0.8252
 1189SOL    HW2 4754   4.269   2.030   2.126  1.1478 -1.1810 -1.2494
 1189SOL    HW3 4755   4.185   2.027   2.000 -0.0876  1.2469 -0.5104
 1189SOL    MW4 4756   4.259   2.048   2.042  0.3529  0.3694 -0.8397
 1190SOL     OW 4757   4.324   2.324   1.933  0.2755  0.0715  0.1067
 1190SOL    HW2 4758   4.323   2.237   1.975 -0.0673  0.6413  1.3045
 1190SOL    HW3 4759   4.402   2.366   1.967 -0.4636  0.8582  0.8398
 1190SOL    MW4 4760   4.334   2.318   1.943  0.1327  0.2504  0.3614
 1191SOL     OW 4761   4.087   2.461   1.993 -0.8140  0.2580  0.8759
 1191SOL    HW2 4762   4.067   2.458   2.087  1.2709 -1.0764  1.3170
 1191SOL    HW3 4763   4.157   2.397   1.982 -1.7792 -0.3643 -1.7938
 1191SOL    MW4 4764   4.094   2.452   2.004 -0.6663 -0.0002  0.5819
 1192SOL     OW 4765   4.060   2.714   1.856 -0.2670 -0.1874  0.2616
 1192SOL    HW2 4766   4.079   2.635   1.907 -0.1038  0.2529  0.8924
 1192SOL    HW3 4767   3.984   2.753   1.899 -0.5907 -0.2143 -0.2909
 1192SOL    MW4 4768   4.053   2.709   1.869 -0.2882 -0.1329  0.2719
 1193SOL     OW 4769   4.249   2.875   2.020  0.1838 -0.0015  0.0589
 1193SOL    HW2 4770   4.230   2.866   2.113 -3.2031 -1.0740 -0.6704
 1193SOL    HW3 4771   4.192   2.811   1.978  0.8135  1.2696 -2.8333
 1193SOL    MW4 4772   4.239   2.866   2.027 -0.1800  0.0247 -0.4189
 1194SOL     OW 4773   4.280   3.111   1.872 -0.0419 -0.2355  0.4874
 1194SOL    HW2 4774   4.210   3.159   1.916  1.4010  0.4331  2.1492
 1194SOL    HW3 4775   4.280   3.025   1.913 -0.7794 -0.6912 -0.4749
 1194SOL    MW4 4776   4.271   3.106   1.883  0.0512 -0.2074  0.5797
 1195SOL     OW 4777   4.075   3.219   2.006  0.0754  0.5909 -0.3736
 1195SOL    HW2 4778   4.063   3.203   2.099  0.4869 -1.2509 -0.6165
 1195SOL    HW3 4779   4.000   3.179   1.964  0.4943  0.3660 -0.9201
 1195SOL    MW4 4780   4.064   3.212   2.012  0.1850  0.3182 -0.4777
 1196SOL     OW 4781   4.072   3.468   1.863  0.3432  0.0732  0.2592
 1196SOL    HW2 4782   4.143   3.515   1.908  1.0049 -1.1512  0.5183
 1196SOL    HW3 4783   4.056   3.392   1.918  1.7193 -1.8981 -1.9863
 1196SOL    MW4 4784   4.079   3.465   1.876  0.6120 -0.3484 -0.0029
 1197SOL     OW 4785   4.259   3.624   1.975 -0.2476  0.3194 -0.4166
 1197SOL    HW2 4786   4.262   3.715   1.947 -0.8301  0.1147 -1.1445
 1197SOL    HW3 4787   4.340   3.585   1.943  0.0006  0.5744 -0.1068
 1197SOL    MW4 4788   4.270   3.631   1.967 -0.2917  0.3260 -0.4718
 1198SOL     OW 4789   4.266   3.900   1.903 -0.3512  0.3448 -0.5909
 1198SOL    HW2 4790   4.345   3.954   1.911  0.0769 -0.2155 -0.9370
 1198SOL    HW3 4791   4.254   3.891   1.808 -0.8764  0.4868 -0.5378
 1198SOL    MW4 4792   4.275   3.906   1.891 -0.3640  0.2896 -0.6296
 1199SOL     OW 4793   4.029   4.053   1.964  0.1382  0.2179  0.3176
 1199SOL    HW2 4794   4.111   4.007   1.982 -0.5727 -2.0554 -2.0598
 1199SOL    HW3 4795   3.972   3.988   1.923 -1.4820  2.7684 -1.7065
 1199SOL    MW4 4796   4.032   4.039   1.961 -0.1693  0.2545 -0.2631
 1200SOL     OW 4797   4.046   4.304   1.873 -0.3023  0.3300  0.2695
 1200SOL    HW2 4798   4.125   4.346   1.906 -1.4513  1.1806  1.9749
 1200SOL    HW3 4799   4.053   4.213   1.903 -0.0200  0.4185  0.4681
 1200SOL    MW4 4800   4.057   4.297   1.881 -0.4167  0.4539  0.5207
 1201SOL     OW 4801   4.281   4.414   1.949 -0.0301  0.0134 -0.1125
 1201SOL    HW2 4802   4.289   4.434   2.043 -0.9262 -0.6177  0.0990
 1201SOL    HW3 4803   4.266   4.500   1.908  0.1462  0.2635  0.3391
 1201SOL    MW4 4804   4.280   4.428   1.956 -0.1251 -0.0369 -0.0250
 1202SOL     OW 4805   0.198   4.639   2.347  0.2667  0.0647  0.0166
 1202SOL    HW2 4806   0.198   4.646   2.442 -1.8324 -1.3050  0.1524
 1202SOL    HW3 4807   0.275   4.688   2.319  1.1900  0.0527  2.4465
 1202SOL    MW4 4808   0.208   4.646   2.356  0.1115 -0.1176  0.3551
 1203SOL     OW 4809   4.445   0.092   2.258 -0.5508 -0.3062 -0.1078
 1203SOL    HW2 4810   4.522   0.042   2.287 -0.2142 -0.0617 -0.5710
 1203SOL    HW3 4811   4.448   0.086   2.163 -0.0186  1.3178 -0.2131
 1203SOL    MW4 4812   4.456   0.085   2.249 -0.4361 -0.0597 -0.1828
 1204SOL     OW 4813   0.026   0.365   2.336 -0.5900  0.1473 -0.0430
 1204SOL    HW2 4814   0.104   0.411   2.303 -1.6870  1.0676 -1.3810
 1204SOL    HW3 4815   0.036   0.275   2.303 -0.2859  0.3631 -0.5557
 1204SOL    MW4 4816   0.038   0.359   2.327 -0.6946  0.2972 -0.2872
 1205SOL     OW 4817   0.245   0.536   2.263 -0.1181  0.1916 -0.0361
 1205SOL    HW2 4818   0.322   0.487   2.293 -0.9004 -0.6551  0.6298
 1205SOL    HW3 4819   0.233   0.507   2.173  0.5219  0.5488 -0.2367
 1205SOL    MW4 4820   0.254   0.526   2.255 -0.1369  0.1270  0.0253
 1206SOL     OW 4821   0.189   0.793   2.373 -0.1658 -0.1197  0.3389
 1206SOL    HW2 4822   0.208   0.791   2.466 -0.1719  0.3303  0.3513
 1206SOL    HW3 4823   0.193   0.701   2.345 -0.0195 -0.2369  0.7491
 1206SOL    MW4 4824   0.192   0.781   2.381 -0.1473 -0.0758  0.3946
 1207SOL     OW 4825   4.453   0.920   2.279 -0.2183  0.0886  0.0716
 1207SOL    HW2 4826   4.532   0.892   2.325  1.2826  1.2318 -1.7550
 1207SOL    HW3 4827   4.481   0.934   2.189 -2.9835 -1.6143 -1.1395
 1207SOL    MW4 4828   4.467   0.918   2.273 -0.3851  0.0148 -0.3292
 1208SOL     OW 4829   4.476   1.182   2.367  0.1303 -0.2504  0.0677
 1208SOL    HW2 4830   4.475   1.191   2.462 -1.2973  0.4656 -0.0044
 1208SOL    HW3 4831   4.475   1.088   2.352  2.9957 -0.4188  0.7647
 1208SOL    MW4 4832   4.476   1.171   2.377  0.3200 -0.1782  0.1502
 1209SOL     OW 4833   0.236   1.254   2.261  0.3927  0.4937 -0.5455
 1209SOL    HW2 4834   0.151   1.230   2.297  0.6286  0.7578  0.2050
 1209SOL    HW3 4835   0.225   1.249   2.166 -0.2929 -0.0352 -0.4407
 1209SOL    MW4 4836   0.224   1.250   2.253  0.3334  0.4587 -0.4327
 1210SOL     OW 4837   0.255   1.521   2.373 -0.1656 -0.0878 -0.6458
 1210SOL    HW2 4838   0.263   1.510   2.467 -0.3085  0.2547 -0.5926
 1210SOL    HW3 4839   0.255   1.431   2.338  0.2135 -0.2037 -0.3514
 1210SOL    MW4 4840   0.256   1.507   2.381 -0.1345 -0.0579 -0.5999
 1211SOL     OW 4841   0.022   1.658   2.291 -0.1329 -0.0362 -0.1969
 1211SOL    HW2 4842   0.030   1.752   2.307  0.4690  0.0887 -1.1835
 1211SOL    HW3 4843   0.104   1.621   2.324  0.5869  0.0725 -1.8061
 1211SOL    MW4 4844   0.034   1.666   2.298  0.0415 -0.0053 -0.5394
 1212SOL     OW 4845   0.016   1.925   2.377 -0.0098 -0.3192 -0.0380
 1212SOL    HW2 4846  -0.071   1.948   2.345  0.0975 -1.6519 -1.3100
 1212SOL    HW3 4847   0.075   1.987   2.334 -0.2893  0.4268  0.6370
 1212SOL    MW4 4848   0.012   1.937   2.367 -0.0326 -0.3966 -0.1167
 1213SOL     OW 4849   0.195   2.093   2.240 -0.0662  0.0263 -0.6508
 1213SOL    HW2 4850   0.254   2.032   2.283 -0.1821  0.1749 -0.2771
 1213SOL    HW3 4851   0.211   2.081   2.146 -0.3626 -0.8453 -0.5900
 1213SOL    MW4 4852   0.205   2.084   2.233 -0.1206 -0.0691 -0.5934
 1214SOL     OW 4853   0.244   2.346   2.339  0.2507  0.0873  0.3877
 1214SOL    HW2 4854   0.254   2.340   2.434 -0.6346  0.6856  0.5194
 1214SOL    HW3 4855   0.218   2.258   2.312 -0.7851  0.2494  0.8576
 1214SOL    MW4 4856   0.242   2.334   2.348 -0.0028  0.1876  0.4671
 1215SOL     OW 4857   4.469   2.421   2.280 -0.3091  0.2282 -0.0312
 1215SOL    HW2 4858   4.466   2.510   2.315  0.9666  0.1152  0.4033
 1215SOL    HW3 4859   4.558   2.391   2.298 -0.4823 -0.8489 -0.8918
 1215SOL    MW4 4860   4.480   2.428   2.287 -0.1636  0.0712 -0.0874
 1216SOL     OW 4861   4.456   2.682   2.371 -0.0991 -0.5597  0.2763
 1216SOL    HW2 4862   4.467   2.678   2.466  0.7651 -2.2062  0.1282
 1216SOL    HW3 4863   4.541   2.713   2.339 -0.3552 -0.1127  0.0360
 1216SOL    MW4 4864   4.469   2.685   2.380 -0.0189 -0.7180  0.2251
 1217SOL     OW 4865   0.190   2.828   2.294 -0.0384  0.1389  0.3836
 1217SOL    HW2 4866   0.283   2.823   2.315 -0.1236 -0.1999  0.6758
 1217SOL    HW3 4867   0.185   2.809   2.200  0.4256  2.4610 -0.1463
 1217SOL    MW4 4868   0.201   2.825   2.284  0.0115  0.4005  0.3522
 1218SOL     OW 4869   0.165   3.096   2.356  0.2032 -0.2645  0.0747
 1218SOL    HW2 4870   0.089   3.143   2.321 -0.1332 -0.6292  0.3116
 1218SOL    HW3 4871   0.160   3.009   2.317  1.3619  0.1957 -1.1152
 1218SOL    MW4 4872   0.154   3.091   2.346  0.3117 -0.2519 -0.0510
 1219SOL     OW 4873   4.455   3.248   2.263 -0.1848  0.1666 -0.3234
 1219SOL    HW2 4874   4.473   3.341   2.278 -0.7001  0.2140  0.0264
 1219SOL    HW3 4875   4.476   3.233   2.171  1.3287  0.2899 -0.0152
 1219SOL    MW4 4876   4.461   3.258   2.253 -0.0531  0.1891 -0.2366
 1220SOL     OW 4877   0.021   3.511   2.343  0.1028  0.4458 -0.6039
 1220SOL    HW2 4878   0.011   3.506   2.438  0.2850  0.2442 -0.5940
 1220SOL    HW3 4879  -0.049   3.569   2.314 -0.4155 -0.0926 -0.4262
 1220SOL    MW4 4880   0.011   3.518   2.352  0.0584  0.3482 -0.5792
 1221SOL     OW 4881   0.255   3.613   2.239  0.4694  0.6298 -0.4742
 1221SOL    HW2 4882   0.320   3.566   2.292 -0.6017  0.2838  0.5336
 1221SOL    HW3 4883   0.171   3.579   2.268 -0.0876 -1.5067 -4.2127
 1221SOL    MW4 4884   0.253   3.602   2.250  0.2546  0.3022 -0.8345
 1222SOL     OW 4885   0.229   3.870   2.351 -0.1653 -0.1234  0.1143
 1222SOL    HW2 4886   0.149   3.908   2.316 -0.2224  0.2156  0.6119
 1222SOL    HW3 4887   0.230   3.780   2.317 -1.2300 -0.4258  0.8595
 1222SOL    MW4 4888   0.219   3.863   2.342 -0.3133 -0.1186  0.2783
 1223SOL     OW 4889   4.480   4.010   2.247  0.2347 -0.3666  0.2756
 1223SOL    HW2 4890   4.489   4.101   2.274 -2.0482 -0.4110  1.3122
 1223SOL    HW3 4891   4.496   4.012   2.152 -1.5349  1.4232 -0.0276
 1223SOL    MW4 4892   4.483   4.022   2.238 -0.3000 -0.1363  0.3724
 1224SOL     OW 4893   0.001   4.278   2.338  0.1190 -0.0671 -0.2902
 1224SOL    HW2 4894  -0.014   4.265   2.432 -1.5685  0.2992 -0.4886
 1224SOL    HW3 4895   0.092   4.306   2.332  0.1281  0.3211  1.2795
 1224SOL    MW4 4896   0.011   4.280   2.350 -0.1025  0.0325 -0.1093
 1225SOL     OW 4897   0.268   4.367   2.298 -0.0676 -0.6982  0.0090
 1225SOL    HW2 4898   0.337   4.314   2.337 -1.2194 -1.1018  1.5465
 1225SOL    HW3 4899   0.276   4.452   2.341 -1.2414 -1.0945  1.0239
 1225SOL    MW4 4900   0.278   4.371   2.309 -0.3744 -0.8037  0.3457
 1226SOL     OW 4901   0.656   4.643   2.349 -0.1395 -0.4549 -0.2354
 1226SOL    HW2 4902   0.660   4.634   2.444  0.2988 -0.2508 -0.2316
 1226SOL    HW3 4903   0.739   4.685   2.325  0.3519 -1.7326 -0.8509
 1226SOL    MW4 4904   0.668   4.647   2.358 -0.0168 -0.5965 -0.3161
 1227SOL     OW 4905   0.418   0.129   2.252 -0.3296 -0.1016  0.0052
 1227SOL    HW2 4906   0.492   0.101   2.305  0.3068  1.8106  0.1615
 1227SOL    HW3 4907   0.445   0.113   2.162 -0.3481 -0.8473  0.1303
 1227SOL    MW4 4908   0.431   0.124   2.247 -0.2481  0.0523  0.0423
 1228SOL     OW 4909   0.472   0.389   2.325 -0.6083  0.0255 -0.1335
 1228SOL    HW2 4910   0.495   0.394   2.418  0.6289 -2.5135 -0.2636
 1228SOL    HW3 4911   0.454   0.296   2.309 -0.2780  0.3360 -2.5489
 1228SOL    MW4 4912   0.473   0.377   2.335 -0.4015 -0.2685 -0.4693
 1229SOL     OW 4913   0.689   0.518   2.214 -0.0657 -0.1503 -0.2981
 1229SOL    HW2 4914   0.699   0.598   2.264  0.8291 -0.7115  0.4236
 1229SOL    HW3 4915   0.608   0.479   2.248  0.2816 -0.2881  0.3802
 1229SOL    MW4 4916   0.679   0.523   2.225  0.0982 -0.2425 -0.1134
 1230SOL     OW 4917   0.682   0.791   2.336  0.6918 -0.1124 -1.0148
 1230SOL    HW2 4918   0.669   0.786   2.431  1.3495  1.1962 -0.8484
 1230SOL    HW3 4919   0.598   0.818   2.301  0.6997  0.3181 -0.7081
 1230SOL    MW4 4920   0.670   0.794   2.344  0.7796  0.1170 -0.9524
 1231SOL     OW 4921   0.422   0.879   2.263  0.3976  0.2574 -0.3690
 1231SOL    HW2 4922   0.343   0.838   2.301 -0.3436  1.2074 -0.8701
 1231SOL    HW3 4923   0.404   0.883   2.169  1.9473 -1.4634 -0.7696
 1231SOL    MW4 4924   0.409   0.874   2.256  0.5043  0.1557 -0.4880
 1232SOL     OW 4925   0.455   1.140   2.363  0.1417  0.0602  0.5025
 1232SOL    HW2 4926   0.453   1.051   2.329  1.3258 -0.4403  1.6730
 1232SOL    HW3 4927   0.375   1.181   2.330 -0.5207 -1.5061  0.1392
 1232SOL    MW4 4928   0.444   1.134   2.354  0.2105 -0.2125  0.6090
 1233SOL     OW 4929   0.653   1.260   2.229 -0.3572 -0.0680 -0.0516
 1233SOL    HW2 4930   0.663   1.352   2.256 -2.0184  0.5806 -1.5029
 1233SOL    HW3 4931   0.573   1.231   2.273  1.1541 -1.4482  1.8986
 1233SOL    MW4 4932   0.644   1.269   2.239 -0.3770 -0.1645  0.0143
 1234SOL     OW 4933   0.668   1.522   2.315  0.2449  0.3982  0.0803
 1234SOL    HW2 4934   0.670   1.523   2.411 -0.4472  1.6197  0.0908
 1234SOL    HW3 4935   0.753   1.558   2.289  0.8141 -0.8051  0.2125
 1234SOL    MW4 4936   0.679   1.527   2.324  0.2286  0.4006  0.0991
 1235SOL     OW 4937   0.442   1.669   2.229  0.0804  0.4689  0.3979
 1235SOL    HW2 4938   0.518   1.631   2.271  0.1782 -0.1065 -0.2933
 1235SOL    HW3 4939   0.367   1.620   2.264  0.0872  0.5745  0.5594
 1235SOL    MW4 4940   0.442   1.658   2.239  0.0942  0.4069  0.3280
 1236SOL     OW 4941   0.378   1.916   2.354 -0.1293  0.0242 -0.2541
 1236SOL    HW2 4942   0.450   1.974   2.330 -0.6806  0.5775 -0.5910
 1236SOL    HW3 4943   0.392   1.837   2.302 -0.1017  0.3671 -0.7769
 1236SOL    MW4 4944   0.389   1.913   2.344 -0.1984  0.1424 -0.3675
 1237SOL     OW 4945   0.610   2.065   2.274 -0.4012 -0.6837  0.4149
 1237SOL    HW2 4946   0.694   2.021   2.289  0.4380  0.2120 -1.4700
 1237SOL    HW3 4947   0.627   2.157   2.294 -1.1429 -0.6139  0.7301
 1237SOL    MW4 4948   0.624   2.071   2.278 -0.3884 -0.5564  0.2078
 1238SOL     OW 4949   0.644   2.340   2.323  0.0160 -0.3542  0.0680
 1238SOL    HW2 4950   0.630   2.344   2.417 -1.5960 -0.0720 -0.1637
 1238SOL    HW3 4951   0.735   2.369   2.310  0.0238  0.2739  1.4708
 1238SOL    MW4 4952   0.654   2.345   2.333 -0.1957 -0.2341  0.2225
 1239SOL     OW 4953   0.443   2.517   2.241  0.1647  0.2828  0.4624
 1239SOL    HW2 4954   0.514   2.463   2.275 -0.7037 -0.3421  1.3112
 1239SOL    HW3 4955   0.363   2.471   2.266 -0.5371  0.7108 -0.9211
 1239SOL    MW4 4956   0.441   2.504   2.249 -0.0425  0.2568  0.3919
 1240SOL     OW 4957   0.461   2.750   2.380 -0.0779 -0.4512  0.3469
 1240SOL    HW2 4958   0.464   2.730   2.474  0.2529 -1.3767  0.1439
 1240SOL    HW3 4959   0.458   2.665   2.337  0.8301 -0.0547 -0.5246
 1240SOL    MW4 4960   0.461   2.736   2.387  0.0855 -0.5210  0.2052
 1241SOL     OW 4961   0.677   2.830   2.220  0.4336  0.2075  0.4499
 1241SOL    HW2 4962   0.745   2.777   2.263 -0.4307 -1.3661 -0.1007
 1241SOL    HW3 4963   0.595   2.793   2.252 -0.2115 -0.3102 -1.7538
 1241SOL    MW4 4964   0.675   2.818   2.230  0.2344 -0.0684  0.0865
 1242SOL     OW 4965   0.672   3.086   2.355  0.0043 -0.1851 -0.4132
 1242SOL    HW2 4966   0.593   3.134   2.329 -1.0657 -1.9402 -0.4918
 1242SOL    HW3 4967   0.665   3.003   2.309  1.9006 -0.3805 -0.3731
 1242SOL    MW4 4968   0.661   3.082   2.345  0.1133 -0.4424 -0.4182
 1243SOL     OW 4969   0.416   3.228   2.288 -0.3309  0.2248  0.2424
 1243SOL    HW2 4970   0.335   3.188   2.318 -0.7906  0.4291 -0.7297
 1243SOL    HW3 4971   0.422   3.204   2.196  0.3576  0.8050  0.1359
 1243SOL    MW4 4972   0.406   3.219   2.280 -0.3007  0.3283  0.1001
 1244SOL     OW 4973   0.445   3.481   2.375  0.3583 -0.5935  0.1336
 1244SOL    HW2 4974   0.527   3.508   2.336  0.2573 -0.3190  0.1127
 1244SOL    HW3 4975   0.439   3.387   2.357  0.0868 -0.3738 -0.9165
 1244SOL    MW4 4976   0.455   3.472   2.368  0.3091 -0.5283 -0.0077
 1245SOL     OW 4977   0.682   3.576   2.284 -0.0980 -0.2518  0.1795
 1245SOL    HW2 4978   0.695   3.667   2.314  2.2910 -0.4724 -0.0839
 1245SOL    HW3 4979   0.681   3.582   2.188  3.2213 -0.8169  0.0387
 1245SOL    MW4 4980   0.684   3.589   2.275  0.6551 -0.3554  0.1262
 1246SOL     OW 4981   0.708   3.850   2.369  0.3024 -0.1686  0.0804
 1246SOL    HW2 4982   0.713   3.863   2.463  0.0823  0.5785 -0.0151
 1246SOL    HW3 4983   0.620   3.880   2.344 -0.2684 -1.9033 -0.1168
 1246SOL    MW4 4984   0.697   3.855   2.378  0.1981 -0.2989  0.0418
 1247SOL     OW 4985   0.485   3.958   2.263  0.0347  0.1845  0.0120
 1247SOL    HW2 4986   0.404   3.923   2.299  0.7682 -0.8030  0.7196
 1247SOL    HW3 4987   0.471   3.958   2.168  0.0325 -2.0910 -0.0129
 1247SOL    MW4 4988   0.472   3.953   2.255  0.1312 -0.2460  0.1021
 1248SOL     OW 4989   0.454   4.203   2.379  0.3491  0.0070 -0.3078
 1248SOL    HW2 4990   0.534   4.251   2.355  1.3581 -1.2388  0.4761
 1248SOL    HW3 4991   0.458   4.123   2.326  0.2742 -0.6464  0.6691
 1248SOL    MW4 4992   0.465   4.199   2.369  0.4723 -0.2435 -0.0755
 1249SOL     OW 4993   0.633   4.376   2.260 -0.1807  0.3699 -0.2359
 1249SOL    HW2 4994   0.652   4.469   2.277  0.4789  0.3393 -0.7613
 1249SOL    HW3 4995   0.661   4.363   2.169  1.3882 -0.7707  0.3876
 1249SOL    MW4 4996   0.639   4.387   2.250  0.1133  0.2154 -0.2229
 1250SOL     OW 4997   1.136   4.627   2.365 -0.7023  0.2414 -0.1703
 1250SOL    HW2 4998   1.123   4.613   2.459  0.1817  2.5084  0.3212
 1250SOL    HW3 4999   1.056   4.673   2.338 -0.7395  0.0182 -0.4337
 1250SOL    MW4 5000   1.123   4.632   2.374 -0.5906  0.5110 -0.1402
 1251SOL     OW 5001   0.904   0.104   2.273  0.9166  0.1801 -0.3909
 1251SOL    HW2 5002   0.891   0.190   2.312  0.2822  0.0489 -0.3051
 1251SOL    HW3 5003   0.901   0.119   2.179 -0.7040  0.0276 -0.3669
 1251SOL    MW4 5004   0.902   0.117   2.266  0.6191  0.1427 -0.3764
 1252SOL     OW 5005   0.865   0.370   2.359 -0.8407 -0.1056  0.0524
 1252SOL    HW2 5006   0.947   0.393   2.314 -0.5336 -1.9403 -0.3709
 1252SOL    HW3 5007   0.796   0.412   2.307 -0.3092 -0.1940 -0.7328
 1252SOL    MW4 5008   0.867   0.379   2.346 -0.7300 -0.3593 -0.1071
 1253SOL     OW 5009   1.101   0.467   2.252  0.1296  0.1743  0.1874
 1253SOL    HW2 5010   1.178   0.426   2.291  0.7713 -0.3561 -1.5525
 1253SOL    HW3 5011   1.126   0.479   2.160 -1.3854  1.2025 -0.0975
 1253SOL    MW4 5012   1.115   0.463   2.245  0.0144  0.2400 -0.0797
 1254SOL     OW 5013   1.128   0.739   2.347  0.7448  0.1906 -0.7688
 1254SOL    HW2 5014   1.054   0.797   2.325  1.4418  1.6131  0.5107
 1254SOL    HW3 5015   1.101   0.653   2.317 -0.3649  1.1683 -2.6581
 1254SOL    MW4 5016   1.115   0.735   2.341  0.6903  0.5073 -0.8492
 1255SOL     OW 5017   0.930   0.901   2.276  0.0236 -0.0328  0.0056
 1255SOL    HW2 5018   0.934   0.991   2.307 -0.2030  0.7230 -2.1258
 1255SOL    HW3 5019   0.847   0.868   2.309  0.6318  0.1409  1.7831
 1255SOL    MW4 5020   0.920   0.908   2.285  0.0740  0.0899 -0.0411
 1256SOL     OW 5021   0.917   1.184   2.351 -0.3880 -0.5446 -0.0617
 1256SOL    HW2 5022   0.983   1.224   2.294 -1.7200  0.0908 -1.2084
 1256SOL    HW3 5023   0.833   1.212   2.313 -1.3141 -0.8274  1.7211
 1256SOL    MW4 5024   0.914   1.193   2.338 -0.6860 -0.4981  0.0222
 1257SOL     OW 5025   1.140   1.311   2.217 -0.0166 -0.0882 -0.8363
 1257SOL    HW2 5026   1.199   1.256   2.269 -1.5283 -0.4398  0.5825
 1257SOL    HW3 5027   1.148   1.277   2.128  0.3728 -1.4758 -0.2903
 1257SOL    MW4 5028   1.149   1.299   2.212 -0.1647 -0.3177 -0.5771
 1258SOL     OW 5029   1.141   1.546   2.375 -0.0021  0.2552  0.1162
 1258SOL    HW2 5030   1.078   1.603   2.332 -1.8873 -0.9103  1.2667
 1258SOL    HW3 5031   1.145   1.468   2.319 -0.4731 -0.1568  0.6487
 1258SOL    MW4 5032   1.134   1.543   2.362 -0.3130  0.0471  0.3382
 1259SOL     OW 5033   0.891   1.679   2.239  0.0220 -0.1371  0.1668
 1259SOL    HW2 5034   0.874   1.766   2.275  2.9564  0.7243 -0.3878
 1259SOL    HW3 5035   0.894   1.692   2.144 -0.9132 -1.1328 -0.0194
 1259SOL    MW4 5036   0.889   1.692   2.231  0.2858 -0.1548  0.0691
 1260SOL     OW 5037   0.848   1.925   2.349 -0.0585 -0.1190 -0.4520
 1260SOL    HW2 5038   0.847   1.940   2.443  0.8046 -1.6466 -0.1728
 1260SOL    HW3 5039   0.931   1.962   2.319 -0.3705  0.4423 -0.6338
 1260SOL    MW4 5040   0.859   1.932   2.357  0.0142 -0.2465 -0.4391
 1261SOL     OW 5041   1.106   2.015   2.270 -0.1547 -0.1589 -0.1722
 1261SOL    HW2 5042   1.182   1.971   2.309 -0.6885 -0.5143  0.4570
 1261SOL    HW3 5043   1.118   2.004   2.176  1.3162  0.9834 -0.1419
 1261SOL    MW4 5044   1.118   2.008   2.263 -0.0311 -0.0550 -0.0852
 1262SOL     OW 5045   1.105   2.279   2.381  0.5122  0.1985  0.3495
 1262SOL    HW2 5046   1.179   2.327   2.344  0.6477  0.3963  0.8784
 1262SOL    HW3 5047   1.108   2.193   2.337 -0.4439  1.0595 -1.4776
 1262SOL    MW4 5048   1.115   2.274   2.370  0.4040  0.3382  0.1782
 1263SOL     OW 5049   0.908   2.462   2.275  0.8391  0.2904 -0.0643
 1263SOL    HW2 5050   0.965   2.396   2.316 -0.0647 -0.2001  0.4253
 1263SOL    HW3 5051   0.910   2.441   2.182  0.9748 -0.1083  0.0255
 1263SOL    MW4 5052   0.916   2.450   2.268  0.7377  0.1731  0.0122
 1264SOL     OW 5053   0.906   2.722   2.355  0.2956 -0.2294  0.2208
 1264SOL    HW2 5054   0.905   2.696   2.447  0.9820 -0.7716  0.0899
 1264SOL    HW3 5055   0.892   2.640   2.307  0.0974  0.0221 -0.1557
 1264SOL    MW4 5056   0.904   2.707   2.360  0.3600 -0.2678  0.1538
 1265SOL     OW 5057   1.123   2.837   2.224 -0.0710 -0.7762  0.6336
 1265SOL    HW2 5058   1.192   2.794   2.275  0.2311 -0.9126  0.1187
 1265SOL    HW3 5059   1.041   2.806   2.263  0.1544 -0.0613  1.7013
 1265SOL    MW4 5060   1.121   2.827   2.236 -0.0014 -0.6999  0.7065
 1266SOL     OW 5061   1.131   3.045   2.405  0.0076  0.0072 -0.3056
 1266SOL    HW2 5062   1.060   3.107   2.386 -0.6754 -0.5492  0.3880
 1266SOL    HW3 5063   1.126   2.981   2.334 -1.8053 -1.4229  1.0486
 1266SOL    MW4 5064   1.121   3.045   2.393 -0.3217 -0.2549 -0.0354
 1267SOL     OW 5065   0.920   3.192   2.276 -0.0078  0.1799 -0.0240
 1267SOL    HW2 5066   0.923   3.280   2.314  0.9221  0.7922 -1.4723
 1267SOL    HW3 5067   0.844   3.151   2.317  0.3119  1.2088  1.6366
 1267SOL    MW4 5068   0.910   3.199   2.286  0.1571  0.3964  0.0040
 1268SOL     OW 5069   0.930   3.457   2.345  0.0997 -0.3134 -0.6387
 1268SOL    HW2 5070   0.915   3.442   2.438 -1.9795 -0.9670 -1.0579
 1268SOL    HW3 5071   0.853   3.504   2.315  0.3827 -0.8164 -2.2074
 1268SOL    MW4 5072   0.918   3.461   2.353 -0.1373 -0.4660 -0.9010
 1269SOL     OW 5073   1.154   3.613   2.266 -0.5491  0.2270 -0.2151
 1269SOL    HW2 5074   1.233   3.569   2.298 -0.2218 -0.0925 -1.4357
 1269SOL    HW3 5075   1.082   3.567   2.309 -0.1194 -0.2797 -0.0365
 1269SOL    MW4 5076   1.155   3.601   2.276 -0.4492  0.1180 -0.3526
 1270SOL     OW 5077   1.129   3.870   2.358  0.2711 -0.0187 -0.3010
 1270SOL    HW2 5078   1.203   3.925   2.334  1.3702 -1.1294  0.4862
 1270SOL    HW3 5079   1.137   3.793   2.302 -0.5626  0.0672 -0.5443
 1270SOL    MW4 5080   1.140   3.867   2.348  0.3061 -0.1539 -0.2292
 1271SOL     OW 5081   0.886   4.032   2.249 -0.1227  0.3090  0.2802
 1271SOL    HW2 5082   0.964   3.982   2.275  0.0108 -0.6680 -1.8748
 1271SOL    HW3 5083   0.812   3.978   2.277 -0.0200  0.8543  1.6087
 1271SOL    MW4 5084   0.887   4.019   2.256 -0.0915  0.2520  0.1711
 1272SOL     OW 5085   0.874   4.289   2.380 -0.1240 -0.3291 -0.2726
 1272SOL    HW2 5086   0.879   4.199   2.346 -0.5904 -0.5401  0.2050
 1272SOL    HW3 5087   0.801   4.329   2.332 -0.1729 -0.3312 -0.2009
 1272SOL    MW4 5088   0.865   4.282   2.369 -0.1920 -0.3572 -0.2001
 1273SOL     OW 5089   1.074   4.391   2.227 -0.2874  0.1111 -0.2536
 1273SOL    HW2 5090   1.013   4.355   2.292 -1.4634  0.8769 -0.9103
 1273SOL    HW3 5091   1.107   4.471   2.267  1.5935 -1.1513  0.8037
 1273SOL    MW4 5092   1.070   4.396   2.241 -0.1944  0.0456 -0.2008
 1274SOL     OW 5093   1.568   4.639   2.376 -0.1572 -0.3245 -0.3420
 1274SOL    HW2 5094   1.645   4.674   2.330 -0.4785 -1.1009 -1.4992
 1274SOL    HW3 5095   1.494   4.683   2.335 -0.4951 -1.5940 -1.1077
 1274SOL    MW4 5096   1.569   4.649   2.364 -0.2442 -0.5944 -0.5957
 1275SOL     OW 5097   1.343   0.091   2.250 -0.0548  0.1398 -0.2869
 1275SOL    HW2 5098   1.352   0.180   2.283  1.7150 -0.0981 -0.0848
 1275SOL    HW3 5099   1.269   0.055   2.299 -1.3555  1.7589 -1.0022
 1275SOL    MW4 5100   1.334   0.098   2.261  0.0071  0.3220 -0.3546
 1276SOL     OW 5101   1.354   0.350   2.345  0.2310 -0.2267 -0.0196
 1276SOL    HW2 5102   1.346   0.349   2.441  0.7958 -1.5523  0.0403
 1276SOL    HW3 5103   1.430   0.406   2.328 -0.0961  0.3128  0.2851
 1276SOL    MW4 5104   1.363   0.357   2.356  0.2624 -0.3304  0.0285
 1277SOL     OW 5105   1.591   0.431   2.254 -0.2383 -0.5397 -0.0456
 1277SOL    HW2 5106   1.662   0.379   2.291 -0.1846 -0.8462 -0.5665
 1277SOL    HW3 5107   1.611   0.433   2.160 -1.1069 -0.9224 -0.2400
 1277SOL    MW4 5108   1.603   0.424   2.246 -0.3458 -0.6306 -0.1400
 1278SOL     OW 5109   1.593   0.707   2.359 -0.1408  0.1600  0.3798
 1278SOL    HW2 5110   1.676   0.745   2.330 -0.8161 -0.0825 -1.9676
 1278SOL    HW3 5111   1.586   0.625   2.311 -1.4332 -0.1190  1.0406
 1278SOL    MW4 5112   1.603   0.701   2.349 -0.4004  0.0912  0.1573
 1279SOL     OW 5113   1.363   0.861   2.260  0.3049 -0.5020 -0.5730
 1279SOL    HW2 5114   1.426   0.808   2.309 -0.7974 -0.8535  0.5016
 1279SOL    HW3 5115   1.277   0.824   2.284 -0.4097  1.0349 -0.7027
 1279SOL    MW4 5116   1.360   0.849   2.270  0.0652 -0.3456 -0.4483
 1280SOL     OW 5117   1.326   1.120   2.350 -0.0787 -0.0093 -0.0387
 1280SOL    HW2 5118   1.348   1.123   2.443  0.9617 -0.8876 -0.2538
 1280SOL    HW3 5119   1.337   1.028   2.325  1.2418  0.5049 -1.4141
 1280SOL    MW4 5120   1.330   1.108   2.359  0.2328 -0.0573 -0.2486
 1281SOL     OW 5121   1.561   1.278   2.249  0.1090  0.0918  0.3542
 1281SOL    HW2 5122   1.493   1.218   2.279  0.9239 -0.4023  1.2414
 1281SOL    HW3 5123   1.587   1.244   2.164 -0.2969 -0.0898  0.2999
 1281SOL    MW4 5124   1.555   1.266   2.242  0.1630  0.0027  0.4641
 1282SOL     OW 5125   1.586   1.537   2.359 -0.4439  0.1721  0.0494
 1282SOL    HW2 5126   1.663   1.584   2.327 -0.2652  0.1263  0.4111
 1282SOL    HW3 5127   1.591   1.451   2.318  0.0740 -0.0727  0.6127
 1282SOL    MW4 5128   1.597   1.532   2.350 -0.3520  0.1338  0.1715
 1283SOL     OW 5129   1.368   1.679   2.252  0.1027 -0.2774  0.2192
 1283SOL    HW2 5130   1.449   1.641   2.288  0.2939 -0.4141 -0.3518
 1283SOL    HW3 5131   1.298   1.629   2.293  0.3138 -0.3216  0.5317
 1283SOL    MW4 5132   1.370   1.667   2.262  0.1557 -0.3013  0.1851
 1284SOL     OW 5133   1.333   1.907   2.399 -0.3521 -0.3642 -0.3148
 1284SOL    HW2 5134   1.417   1.951   2.385 -0.4414 -0.3397 -0.8095
 1284SOL    HW3 5135   1.344   1.821   2.357 -1.0559  0.1858 -1.6656
 1284SOL    MW4 5136   1.346   1.901   2.391 -0.4567 -0.2884 -0.5583
 1285SOL     OW 5137   1.541   2.052   2.294  0.5586  0.1140 -0.1435
 1285SOL    HW2 5138   1.630   2.027   2.318  0.4589  1.0444  1.2500
 1285SOL    HW3 5139   1.538   2.042   2.199  1.9557 -0.5340 -0.1230
 1285SOL    MW4 5140   1.552   2.048   2.284  0.7298  0.1512  0.0431
 1286SOL     OW 5141   1.566   2.330   2.363 -0.0924  0.2144  0.3487
 1286SOL    HW2 5142   1.545   2.319   2.456 -0.8210  0.0435  0.1671
 1286SOL    HW3 5143   1.567   2.241   2.327 -0.5275  0.3303  0.0443
 1286SOL    MW4 5144   1.563   2.317   2.370 -0.2459  0.2071  0.2846
 1287SOL     OW 5145   1.318   2.447   2.315  0.1091  0.0891  0.1032
 1287SOL    HW2 5146   1.399   2.401   2.335 -0.4870 -0.9856  0.0810
 1287SOL    HW3 5147   1.316   2.452   2.220  0.7138  1.1604  0.1366
 1287SOL    MW4 5148   1.328   2.442   2.305  0.1102  0.0887  0.1047
 1288SOL     OW 5149   1.356   2.729   2.358 -0.0283 -0.0238 -0.1023
 1288SOL    HW2 5150   1.441   2.741   2.315  0.0942 -0.1359  0.1096
 1288SOL    HW3 5151   1.338   2.636   2.350 -0.3206  0.0662 -0.5007
 1288SOL    MW4 5152   1.365   2.719   2.351 -0.0507 -0.0268 -0.1269
 1289SOL     OW 5153   1.575   2.819   2.229 -0.0857  0.6870 -0.3125
 1289SOL    HW2 5154   1.556   2.909   2.255 -2.6275  0.6189 -1.7757
 1289SOL    HW3 5155   1.588   2.824   2.134  1.3564 -0.2721 -0.1895
 1289SOL    MW4 5156   1.574   2.831   2.220 -0.2308  0.5515 -0.4894
 1290SOL     OW 5157   1.539   3.077   2.341  0.0364  0.6320  0.0574
 1290SOL    HW2 5158   1.547   3.073   2.436  1.1775  0.1082 -0.0534
 1290SOL    HW3 5159   1.455   3.122   2.326 -1.2638 -1.2697  1.3130
 1290SOL    MW4 5160   1.529   3.082   2.351  0.0154  0.3120  0.2084
 1291SOL     OW 5161   1.330   3.231   2.284 -0.1033  0.1257  0.2027
 1291SOL    HW2 5162   1.262   3.166   2.303  0.4150 -0.8587 -1.2328
 1291SOL    HW3 5163   1.339   3.229   2.189  2.1054  0.0654  0.3895
 1291SOL    MW4 5164   1.322   3.222   2.274  0.2565 -0.0121  0.0380
 1292SOL     OW 5165   1.354   3.495   2.407  0.0786  0.0905 -0.1109
 1292SOL    HW2 5166   1.353   3.501   2.503 -1.2921 -0.7156 -0.0586
 1292SOL    HW3 5167   1.340   3.402   2.389 -0.4462  0.3575 -1.1095
 1292SOL    MW4 5168   1.352   3.484   2.417 -0.1714  0.0194 -0.2358
 1293SOL     OW 5169   1.537   3.609   2.237  0.0780 -0.2566  0.3962
 1293SOL    HW2 5170   1.553   3.699   2.267 -0.8216  0.1907 -0.4172
 1293SOL    HW3 5171   1.464   3.578   2.291 -0.2869 -0.1272 -0.0173
 1293SOL    MW4 5172   1.529   3.617   2.248 -0.0888 -0.1805  0.2343
 1294SOL     OW 5173   1.591   3.881   2.350  0.6103 -0.2980  0.1668
 1294SOL    HW2 5174   1.587   3.899   2.444  1.8981 -0.7198  0.3001
 1294SOL    HW3 5175   1.671   3.925   2.321  0.6337 -0.8460 -0.5886
 1294SOL    MW4 5176   1.601   3.889   2.359  0.7833 -0.4260  0.0847
 1295SOL     OW 5177   1.365   4.011   2.274  0.3055  0.2470  0.1612
 1295SOL    HW2 5178   1.445   3.969   2.305  1.2493  1.8322 -0.0307
 1295SOL    HW3 5179   1.366   4.000   2.179  1.2381  1.8013 -0.0314
 1295SOL    MW4 5180   1.375   4.004   2.266  0.5531  0.6612  0.1105
 1296SOL     OW 5181   1.324   4.282   2.342  0.0581  0.7981 -0.3468
 1296SOL    HW2 5182   1.327   4.188   2.322 -0.1160  0.5920  0.5562
 1296SOL    HW3 5183   1.243   4.312   2.301 -0.4684  0.3149  0.3310
 1296SOL    MW4 5184   1.314   4.274   2.334 -0.0343  0.7071 -0.1382
 1297SOL     OW 5185   1.547   4.407   2.245  0.5674 -0.0385  0.3879
 1297SOL    HW2 5186   1.476   4.354   2.279 -1.1030  1.2974 -0.9070
 1297SOL    HW3 5187   1.541   4.489   2.293  0.3263  0.5936 -0.6996
 1297SOL    MW4 5188   1.537   4.411   2.256  0.3152  0.2211  0.0736
 1298SOL     OW 5189   1.982   4.629   2.324 -0.1477  0.0512  0.0705
 1298SOL    HW2 5190   2.071   4.653   2.298  0.0857  1.0437  1.6990
 1298SOL    HW3 5191   1.975   4.536   2.303  2.1262 -0.6428  2.1105
 1298SOL    MW4 5192   1.993   4.620   2.318  0.1831  0.0906  0.5545
 1299SOL     OW 5193   1.775   0.103   2.216  0.0945 -0.0328 -0.3097
 1299SOL    HW2 5194   1.775   0.194   2.247 -1.3799  0.5614 -1.9698
 1299SOL    HW3 5195   1.849   0.063   2.262  0.7745  1.9947  0.4613
 1299SOL    MW4 5196   1.785   0.110   2.226 -0.0103  0.3131 -0.4270
 1300SOL     OW 5197   1.812   0.332   2.369  0.1328 -0.0394  0.0578
 1300SOL    HW2 5198   1.813   0.329   2.465 -1.0714 -1.8805  0.0523
 1300SOL    HW3 5199   1.880   0.395   2.346  1.7851 -1.0273  2.0766
 1300SOL    MW4 5200   1.821   0.340   2.378  0.1919 -0.4127  0.3234
 1301SOL     OW 5201   2.024   0.490   2.248 -0.2775  0.0369  0.3963
 1301SOL    HW2 5202   2.015   0.576   2.290  0.5320  0.2445  0.1454
 1301SOL    HW3 5203   2.022   0.510   2.154  0.6378 -0.1481  0.3423
 1301SOL    MW4 5204   2.022   0.504   2.241 -0.0499  0.0399  0.3561
 1302SOL     OW 5205   1.995   0.742   2.358 -0.0965 -0.2646  0.0646
 1302SOL    HW2 5206   2.069   0.789   2.319 -0.1516 -1.2321 -1.2322
 1302SOL    HW3 5207   1.918   0.781   2.318 -0.2760  0.2866  0.9220
 1302SOL    MW4 5208   1.995   0.753   2.348 -0.1275 -0.3195  0.0066
 1303SOL     OW 5209   1.799   0.877   2.227  0.0007 -0.2931  0.5418
 1303SOL    HW2 5210   1.781   0.969   2.244 -0.5379 -0.6059  1.7060
 1303SOL    HW3 5211   1.793   0.869   2.132  0.4002  0.9375  0.3969
 1303SOL    MW4 5212   1.796   0.888   2.216 -0.0177 -0.1720  0.6763
 1304SOL     OW 5213   1.784   1.128   2.336 -0.4283 -0.0575  0.6788
 1304SOL    HW2 5214   1.848   1.177   2.283 -0.1129 -0.5762  0.5813
 1304SOL    HW3 5215   1.703   1.179   2.328 -0.1361  0.3800  0.4667
 1304SOL    MW4 5216   1.782   1.141   2.328 -0.3481 -0.0682  0.6379
 1305SOL     OW 5217   2.009   1.258   2.202  0.2185 -0.2105  0.4182
 1305SOL    HW2 5218   2.011   1.351   2.225 -2.3413 -0.3240  1.2916
 1305SOL    HW3 5219   2.018   1.257   2.106  0.8611  0.8931  0.4582
 1305SOL    MW4 5220   2.011   1.270   2.192 -0.0345 -0.0799  0.5387
 1306SOL     OW 5221   2.016   1.534   2.292  0.0057  0.0152 -0.2359
 1306SOL    HW2 5222   2.018   1.512   2.385 -2.2170 -1.9342 -0.5912
 1306SOL    HW3 5223   1.944   1.598   2.284 -0.5852 -0.7056 -0.7594
 1306SOL    MW4 5224   2.006   1.540   2.303 -0.3655 -0.3371 -0.3519
 1307SOL     OW 5225   1.790   1.700   2.268  0.3614  0.3613 -0.7676
 1307SOL    HW2 5226   1.807   1.792   2.289  2.2744  0.0337 -0.7931
 1307SOL    HW3 5227   1.774   1.700   2.173  1.2495  0.5551 -0.9230
 1307SOL    MW4 5228   1.790   1.712   2.258  0.7309  0.3436 -0.7915
 1308SOL     OW 5229   1.781   1.983   2.370  0.0804  0.1594 -0.4230
 1308SOL    HW2 5230   1.784   1.948   2.459 -0.4111  0.1763 -0.4008
 1308SOL    HW3 5231   1.864   2.030   2.361  0.7783 -1.0616 -0.4885
 1308SOL    MW4 5232   1.793   1.985   2.380  0.1076  0.0005 -0.4287
 1309SOL     OW 5233   2.017   2.093   2.286 -0.0892  0.5647 -0.1110
 1309SOL    HW2 5234   2.078   2.028   2.320 -0.7049 -0.1067 -0.2801
 1309SOL    HW3 5235   2.034   2.095   2.192 -0.0479  0.6719 -0.1015
 1309SOL    MW4 5236   2.027   2.085   2.279 -0.1650  0.4902 -0.1320
 1310SOL     OW 5237   2.026   2.362   2.391  0.6065  0.2486  0.5581
 1310SOL    HW2 5238   2.111   2.386   2.354 -0.9790  1.9126 -2.1825
 1310SOL    HW3 5239   2.014   2.270   2.367  1.6595 -0.0232  1.0454
 1310SOL    MW4 5240   2.036   2.353   2.383  0.5362  0.4323  0.2608
 1311SOL     OW 5241   1.799   2.445   2.276  0.2174 -0.1440 -0.6207
 1311SOL    HW2 5242   1.880   2.407   2.309 -1.2189 -1.1143  1.9417
 1311SOL    HW3 5243   1.729   2.392   2.315 -1.7307  2.5029 -0.3256
 1311SOL    MW4 5244   1.800   2.433   2.286 -0.2291  0.0772 -0.2437
 1312SOL     OW 5245   1.798   2.705   2.372  0.0259 -0.0743  0.4518
 1312SOL    HW2 5246   1.797   2.611   2.352 -0.6481 -0.1515  0.8437
 1312SOL    HW3 5247   1.723   2.741   2.326  1.9353  0.7966 -2.1019
 1312SOL    MW4 5248   1.788   2.697   2.363  0.1889  0.0304  0.1666
 1313SOL     OW 5249   2.011   2.829   2.289 -0.4103 -0.3110  0.4095
 1313SOL    HW2 5250   2.081   2.770   2.317  0.0841  0.4655  0.8330
 1313SOL    HW3 5251   1.930   2.785   2.315 -0.1099 -1.4061 -0.4382
 1313SOL    MW4 5252   2.010   2.816   2.296 -0.3055 -0.3530  0.3535
 1314SOL     OW 5253   1.993   3.085   2.383 -0.2452  0.0711  0.2647
 1314SOL    HW2 5254   2.057   3.129   2.327  0.8072 -0.6573  0.8533
 1314SOL    HW3 5255   1.984   2.998   2.345 -0.9820  0.2091  0.1210
 1314SOL    MW4 5256   2.001   3.079   2.371 -0.2035 -0.0068  0.3234
 1315SOL     OW 5257   1.750   3.243   2.303  0.0009  0.4825  0.0373
 1315SOL    HW2 5258   1.817   3.183   2.336  1.2494  1.3605 -0.8167
 1315SOL    HW3 5259   1.669   3.193   2.305  0.9262 -1.0408 -0.1185
 1315SOL    MW4 5260   1.748   3.229   2.307  0.2877  0.3973 -0.0960
 1316SOL     OW 5261   1.777   3.509   2.365  0.0624 -0.1072  0.1591
 1316SOL    HW2 5262   1.784   3.414   2.357  0.4144 -0.0501 -0.2450
 1316SOL    HW3 5263   1.694   3.531   2.323  0.9240 -0.0297 -1.5563
 1316SOL    MW4 5264   1.767   3.500   2.359  0.2225 -0.0894 -0.1205
 1317SOL     OW 5265   2.004   3.620   2.280  0.6091 -0.1998  0.3521
 1317SOL    HW2 5266   1.920   3.588   2.314  0.8981 -1.4871 -0.1027
 1317SOL    HW3 5267   1.993   3.620   2.185  0.8893  0.3182  0.3185
 1317SOL    MW4 5268   1.992   3.615   2.272  0.6842 -0.3013  0.2877
 1318SOL     OW 5269   2.049   3.882   2.356 -0.3987 -0.4086 -0.2164
 1318SOL    HW2 5270   2.053   3.883   2.452 -0.2170  1.4535 -0.2280
 1318SOL    HW3 5271   2.029   3.791   2.334 -0.4346 -0.8581  1.5860
 1318SOL    MW4 5272   2.047   3.870   2.366 -0.3794 -0.2222  0.0199
 1319SOL     OW 5273   1.815   4.019   2.251  0.0848  0.3458  0.2969
 1319SOL    HW2 5274   1.888   3.965   2.281 -0.4816 -0.6477 -0.0525
 1319SOL    HW3 5275   1.824   4.020   2.156  0.5488  1.5436  0.3541
 1319SOL    MW4 5276   1.825   4.012   2.243  0.0713  0.3727  0.2583
 1320SOL     OW 5277   1.755   4.271   2.352 -0.5059 -0.5208 -0.0378
 1320SOL    HW2 5278   1.760   4.186   2.308 -0.1143 -0.8179  0.5726
 1320SOL    HW3 5279   1.687   4.318   2.305  0.9541 -0.2510 -1.9421
 1320SOL    MW4 5280   1.747   4.266   2.340 -0.2616 -0.5244 -0.2085
 1321SOL     OW 5281   2.010   4.350   2.262 -0.2825  0.2467  0.4455
 1321SOL    HW2 5282   1.923   4.319   2.286  0.4147 -1.7653  0.4838
 1321SOL    HW3 5283   2.014   4.338   2.167  0.1886 -0.3053  0.5327
 1321SOL    MW4 5284   1.999   4.345   2.252 -0.1284 -0.0916  0.4620
 1322SOL     OW 5285   2.501   4.652   2.313 -0.2981  0.2086 -0.1058
 1322SOL    HW2 5286   2.583   4.691   2.282 -0.6757  0.1071 -1.2449
 1322SOL    HW3 5287   2.511   4.559   2.295  0.0041 -0.0456  1.2801
 1322SOL    MW4 5288   2.513   4.645   2.307 -0.3081  0.1617 -0.0732
 1323SOL     OW 5289   2.222   0.065   2.276  0.5971  0.0486 -0.3098
 1323SOL    HW2 5290   2.207   0.156   2.301  1.2401 -0.0622  0.5118
 1323SOL    HW3 5291   2.315   0.052   2.291  1.1160  0.0945 -3.2170
 1323SOL    MW4 5292   2.232   0.076   2.281  0.7504  0.0400 -0.5849
 1324SOL     OW 5293   2.233   0.338   2.364  0.5926 -0.4234  0.1637
 1324SOL    HW2 5294   2.322   0.358   2.335  0.5334 -0.5385 -0.1028
 1324SOL    HW3 5295   2.178   0.400   2.316  0.6790  0.8243  1.6420
 1324SOL    MW4 5296   2.238   0.348   2.353  0.5962 -0.2740  0.3236
 1325SOL     OW 5297   2.477   0.453   2.289  0.3053 -0.1929 -0.2247
 1325SOL    HW2 5298   2.563   0.421   2.315  1.3010  2.8864  0.4864
 1325SOL    HW3 5299   2.478   0.451   2.193  1.6622  1.0060 -0.2468
 1325SOL    MW4 5300   2.488   0.448   2.280  0.6157  0.3715 -0.1338
 1326SOL     OW 5301   2.452   0.714   2.390 -0.5074 -0.0132  0.1089
 1326SOL    HW2 5302   2.528   0.751   2.345 -0.5006 -0.6934 -0.4495
 1326SOL    HW3 5303   2.434   0.632   2.343 -1.0670 -0.2702  0.7686
 1326SOL    MW4 5304   2.459   0.708   2.378 -0.5803 -0.1368  0.1223
 1327SOL     OW 5305   2.224   0.855   2.257  0.2835 -0.1561  0.2870
 1327SOL    HW2 5306   2.211   0.949   2.268 -0.7755 -0.5013  2.1466
 1327SOL    HW3 5307   2.307   0.836   2.302 -0.0295 -0.2849  0.8067
 1327SOL    MW4 5308   2.234   0.865   2.264  0.1025 -0.2186  0.6009
 1328SOL     OW 5309   2.214   1.114   2.310 -0.3821  0.2572  0.6006
 1328SOL    HW2 5310   2.283   1.173   2.281  0.1543 -0.4104  0.5115
 1328SOL    HW3 5311   2.136   1.141   2.260  0.1490  0.1083 -0.3116
 1328SOL    MW4 5312   2.213   1.125   2.300 -0.2412  0.1495  0.4685
 1329SOL     OW 5313   2.454   1.265   2.248 -0.2381  0.0141 -0.3839
 1329SOL    HW2 5314   2.511   1.204   2.295 -0.3391 -1.2380 -1.8513
 1329SOL    HW3 5315   2.472   1.350   2.288  1.1882 -0.6877  0.5190
 1329SOL    MW4 5316   2.464   1.268   2.260 -0.0633 -0.2437 -0.4584
 1330SOL     OW 5317   2.462   1.558   2.352  0.1388  0.2790  0.3176
 1330SOL    HW2 5318   2.474   1.540   2.446  0.0408 -0.6997  0.1497
 1330SOL    HW3 5319   2.542   1.605   2.327 -0.2545  1.4072  1.0908
 1330SOL    MW4 5320   2.474   1.562   2.361  0.0740  0.2988  0.3974
 1331SOL     OW 5321   2.227   1.693   2.251  0.2420 -0.5081  0.5797
 1331SOL    HW2 5322   2.312   1.653   2.270  0.7206  0.7499  1.1767
 1331SOL    HW3 5323   2.163   1.626   2.274  1.0173 -0.8398  1.8522
 1331SOL    MW4 5324   2.230   1.679   2.257  0.4074 -0.3859  0.8264
 1332SOL     OW 5325   2.233   1.952   2.363 -0.0089  0.2866  0.0490
 1332SOL    HW2 5326   2.305   2.007   2.333  1.8318 -1.8382  0.4439
 1332SOL    HW3 5327   2.250   1.866   2.324 -1.7134 -0.5446  1.0465
 1332SOL    MW4 5328   2.245   1.948   2.354  0.0091 -0.1034  0.2327
 1333SOL     OW 5329   2.469   2.060   2.284 -0.2849  0.0376  0.0606
 1333SOL    HW2 5330   2.551   2.017   2.308 -1.3234 -2.3987 -0.6077
 1333SOL    HW3 5331   2.471   2.064   2.189 -1.1990 -0.5626  0.0133
 1333SOL    MW4 5332   2.480   2.055   2.275 -0.5425 -0.3630 -0.0338
 1334SOL     OW 5333   2.479   2.317   2.403 -0.5117 -0.2958 -0.3730
 1334SOL    HW2 5334   2.558   2.357   2.366 -1.5113  0.7205 -1.4385
 1334SOL    HW3 5335   2.469   2.236   2.353 -0.8327  0.1787 -1.0814
 1334SOL    MW4 5336   2.488   2.312   2.391 -0.6860 -0.0991 -0.6070
 1335SOL     OW 5337   2.266   2.433   2.275  0.3537 -0.1151 -0.5533
 1335SOL    HW2 5338   2.275   2.523   2.305 -0.5167  0.0421 -0.7658
 1335SOL    HW3 5339   2.341   2.388   2.313 -0.1929  0.2997  1.0620
 1335SOL    MW4 5340   2.277   2.439   2.284  0.1667 -0.0396 -0.3682
 1336SOL     OW 5341   2.243   2.681   2.382 -0.3879 -0.1114 -0.3834
 1336SOL    HW2 5342   2.243   2.694   2.476  0.4923 -0.1927 -0.3751
 1336SOL    HW3 5343   2.299   2.751   2.348  1.1490 -1.4393 -0.6582
 1336SOL    MW4 5344   2.250   2.692   2.390 -0.0690 -0.2974 -0.4186
 1337SOL     OW 5345   2.464   2.835   2.291 -0.2820 -0.3971 -0.0373
 1337SOL    HW2 5346   2.550   2.804   2.319 -0.9882 -2.2141  0.1451
 1337SOL    HW3 5347   2.466   2.828   2.195 -0.1889 -0.3180 -0.0413
 1337SOL    MW4 5348   2.476   2.830   2.282 -0.3629 -0.6264 -0.0137
 1338SOL     OW 5349   2.453   3.099   2.357  0.1562 -0.0393  0.1849
 1338SOL    HW2 5350   2.539   3.131   2.331  0.3279  0.2101  1.0719
 1338SOL    HW3 5351   2.455   3.006   2.334  0.0444  0.3202 -1.3689
 1338SOL    MW4 5352   2.465   3.091   2.350  0.1641  0.0410  0.0969
 1339SOL     OW 5353   2.230   3.212   2.251  0.4381  0.2411 -0.0281
 1339SOL    HW2 5354   2.240   3.303   2.279  3.7127  0.1598 -0.7857
 1339SOL    HW3 5355   2.303   3.166   2.292  0.3853 -1.5199 -1.8589
 1339SOL    MW4 5356   2.241   3.218   2.260  0.8632 -0.0020 -0.3696
 1340SOL     OW 5357   2.248   3.470   2.383  0.1460  0.0376 -0.1319
 1340SOL    HW2 5358   2.241   3.484   2.478  0.9674  1.6581 -0.2924
 1340SOL    HW3 5359   2.183   3.529   2.345 -0.6231 -1.0609 -0.5753
 1340SOL    MW4 5360   2.238   3.480   2.391  0.1529  0.1064 -0.2116
 1341SOL     OW 5361   2.483   3.605   2.305 -0.1287 -0.2798 -0.1991
 1341SOL    HW2 5362   2.469   3.696   2.332  1.2765 -0.3535  0.8154
 1341SOL    HW3 5363   2.406   3.558   2.337 -0.2479  0.3107  0.3914
 1341SOL    MW4 5364   2.471   3.611   2.313  0.0410 -0.2116  0.0126
 1342SOL     OW 5365   2.449   3.854   2.395  0.0118  0.3177 -0.5256
 1342SOL    HW2 5366   2.456   3.861   2.490 -0.9469 -0.3346 -0.4003
 1342SOL    HW3 5367   2.388   3.924   2.370 -2.2332 -1.5224 -0.2992
 1342SOL    MW4 5368   2.442   3.864   2.404 -0.4109 -0.0112 -0.4792
 1343SOL     OW 5369   2.274   4.015   2.250 -0.2226  0.2773  0.4073
 1343SOL    HW2 5370   2.267   4.099   2.296 -0.1701  0.0886  0.7576
 1343SOL    HW3 5371   2.201   3.963   2.282 -0.8112  0.5278 -0.5208
 1343SOL    MW4 5372   2.263   4.019   2.260 -0.2934  0.2854  0.3311
 1344SOL     OW 5373   2.265   4.267   2.367 -0.2287  0.2519 -0.3899
 1344SOL    HW2 5374   2.271   4.237   2.457  0.2532 -0.8468 -0.7839
 1344SOL    HW3 5375   2.179   4.308   2.361 -0.5990 -0.4161  0.3407
 1344SOL    MW4 5376   2.254   4.269   2.378 -0.2140  0.0188 -0.3455
 1345SOL     OW 5377   2.483   4.366   2.239  0.2511 -0.2403  0.6527
 1345SOL    HW2 5378   2.552   4.303   2.260  0.2478 -1.1629 -1.8178
 1345SOL    HW3 5379   2.403   4.327   2.275  0.6155 -0.5305  1.1430
 1345SOL    MW4 5380   2.482   4.353   2.246  0.2987 -0.4003  0.3915
 1346SOL     OW 5381   2.941   4.656   2.353  0.0711 -0.2201  0.2728
 1346SOL    HW2 5382   3.021   4.695   2.316 -0.5134  0.9166  0.1861
 1346SOL    HW3 5383   2.940   4.566   2.318  0.2497  0.4008 -1.3853
 1346SOL    MW4 5384   2.952   4.649   2.343  0.0175  0.0118  0.0426
 1347SOL     OW 5385   2.729   0.124   2.246  0.1344  0.0550  0.2492
 1347SOL    HW2 5386   2.735   0.204   2.298 -0.1613  0.7507 -0.7686
 1347SOL    HW3 5387   2.793   0.064   2.285  0.7977  1.0136  0.6230
 1347SOL    MW4 5388   2.738   0.126   2.258  0.1829  0.2733  0.1643
 1348SOL     OW 5389   2.716   0.365   2.383 -0.2805  0.1711 -0.1052
 1348SOL    HW2 5390   2.728   0.349   2.477 -1.2310 -0.9657 -0.1666
 1348SOL    HW3 5391   2.790   0.421   2.359  1.3180 -1.4929  0.8304
 1348SOL    MW4 5392   2.728   0.370   2.392 -0.1950 -0.1984  0.0102
 1349SOL     OW 5393   2.922   0.496   2.259 -0.1200 -0.4262 -0.6728
 1349SOL    HW2 5394   2.922   0.589   2.283  2.9584 -0.6909  0.6190
 1349SOL    HW3 5395   2.924   0.497   2.163  2.9105  0.9670 -0.6770
 1349SOL    MW4 5396   2.922   0.509   2.250  0.6860 -0.2773 -0.5029
 1350SOL     OW 5397   2.923   0.748   2.397  0.6538 -0.3325  0.3749
 1350SOL    HW2 5398   2.925   0.736   2.492  0.5650 -2.1506  0.1610
 1350SOL    HW3 5399   2.831   0.765   2.377  0.4902 -1.0667  0.4909
 1350SOL    MW4 5400   2.911   0.749   2.407  0.6205 -0.6692  0.3620
 1351SOL     OW 5401   2.687   0.835   2.287  0.4024  0.0498 -0.4092
 1351SOL    HW2 5402   2.676   0.929   2.302 -1.9846 -0.3595  0.6368
 1351SOL    HW3 5403   2.696   0.827   2.192  1.8340  1.4244 -0.4146
 1351SOL    MW4 5404   2.687   0.846   2.277  0.2764  0.1771 -0.2719
 1352SOL     OW 5405   2.675   1.092   2.367 -0.8634  0.2273 -0.2267
 1352SOL    HW2 5406   2.680   1.095   2.463 -2.3812 -0.3190 -0.1105
 1352SOL    HW3 5407   2.756   1.133   2.338 -0.9788  1.6453  1.3003
 1352SOL    MW4 5408   2.686   1.098   2.376 -1.0789  0.3423 -0.0099
 1353SOL     OW 5409   2.887   1.249   2.254  0.2104  0.2461  0.5428
 1353SOL    HW2 5410   2.961   1.195   2.279 -0.9823 -2.2777 -1.1143
 1353SOL    HW3 5411   2.894   1.256   2.159 -1.1863  0.6947  0.4632
 1353SOL    MW4 5412   2.897   1.243   2.245 -0.1313 -0.0277  0.3137
 1354SOL     OW 5413   2.908   1.517   2.341 -0.2776 -0.1385 -0.1924
 1354SOL    HW2 5414   2.928   1.511   2.434  0.4976 -0.1724 -0.3572
 1354SOL    HW3 5415   2.888   1.427   2.315  1.0604 -0.3827 -0.3978
 1354SOL    MW4 5416   2.908   1.504   2.350  0.0012 -0.1752 -0.2413
 1355SOL     OW 5417   2.687   1.665   2.257 -0.3009  0.2073 -0.0288
 1355SOL    HW2 5418   2.769   1.617   2.267 -0.9695 -0.6961  1.3127
 1355SOL    HW3 5419   2.673   1.671   2.163  0.8276 -0.4529 -0.2423
 1355SOL    MW4 5420   2.696   1.660   2.246 -0.2402  0.0010  0.1201
 1356SOL     OW 5421   2.717   1.931   2.367  0.1153  0.0995 -0.2278
 1356SOL    HW2 5422   2.698   1.923   2.460 -0.3819 -0.8018 -0.3982
 1356SOL    HW3 5423   2.712   1.841   2.334 -0.4579  0.5064 -1.2669
 1356SOL    MW4 5424   2.714   1.918   2.375 -0.0259  0.0343 -0.3874
 1357SOL     OW 5425   2.923   2.110   2.281 -0.2591  0.3016  0.0240
 1357SOL    HW2 5426   2.992   2.047   2.299  0.2018  0.9878  0.7144
 1357SOL    HW3 5427   2.845   2.072   2.320 -0.1216 -0.1477 -0.1375
 1357SOL    MW4 5428   2.922   2.097   2.288 -0.1801  0.3329  0.0938
 1358SOL     OW 5429   2.953   2.379   2.360 -0.2822 -0.1540  0.1709
 1358SOL    HW2 5430   2.981   2.362   2.450  0.8782 -1.1437 -0.3512
 1358SOL    HW3 5431   2.930   2.292   2.326 -0.8626  0.2328 -0.4387
 1358SOL    MW4 5432   2.954   2.365   2.367 -0.2057 -0.2336  0.0216
 1359SOL     OW 5433   2.699   2.461   2.280 -0.2837 -0.1483 -0.0219
 1359SOL    HW2 5434   2.784   2.427   2.309 -0.7073 -0.5396  0.7477
 1359SOL    HW3 5435   2.707   2.465   2.184  1.0876  1.0742  0.1135
 1359SOL    MW4 5436   2.711   2.457   2.271 -0.1586 -0.0387  0.0975
 1360SOL     OW 5437   2.684   2.696   2.403 -0.6030  0.1180  0.0829
 1360SOL    HW2 5438   2.765   2.726   2.362 -0.5438 -0.1174  0.0291
 1360SOL    HW3 5439   2.660   2.617   2.355 -0.8062  0.1256  0.1706
 1360SOL    MW4 5440   2.691   2.689   2.391 -0.6220  0.0879  0.0873
 1361SOL     OW 5441   2.931   2.784   2.271 -0.2404  0.4858  0.2837
 1361SOL    HW2 5442   2.916   2.869   2.314  1.4347  1.3738 -0.8450
 1361SOL    HW3 5443   2.934   2.805   2.178  2.3212 -0.4737  0.1165
 1361SOL    MW4 5444   2.929   2.798   2.265  0.3186  0.4763  0.1128
 1362SOL     OW 5445   2.922   3.039   2.378 -0.5532  0.5651  0.6092
 1362SOL    HW2 5446   2.998   3.067   2.328 -0.1202  0.2471  1.0829
 1362SOL    HW3 5447   2.854   3.102   2.356 -0.9486 -0.6443 -1.8534
 1362SOL    MW4 5448   2.923   3.051   2.369 -0.5482  0.3636  0.3468
 1363SOL     OW 5449   2.706   3.201   2.290  0.5205  0.1268 -0.7295
 1363SOL    HW2 5450   2.710   3.286   2.332 -1.5062 -0.0763 -0.0892
 1363SOL    HW3 5451   2.698   3.221   2.196  0.1853  0.6241 -0.5936
 1363SOL    MW4 5452   2.705   3.215   2.283  0.2089  0.1656 -0.6271
 1364SOL     OW 5453   2.691   3.453   2.401  0.1267  0.3766 -0.5902
 1364SOL    HW2 5454   2.772   3.492   2.369 -0.3665  0.4924 -1.7055
 1364SOL    HW3 5455   2.621   3.504   2.360 -0.5124  0.0213  0.0433
 1364SOL    MW4 5456   2.693   3.465   2.392 -0.0227  0.3450 -0.6538
 1365SOL     OW 5457   2.913   3.577   2.312 -0.0122 -0.2433 -0.5516
 1365SOL    HW2 5458   3.003   3.548   2.317 -0.0469 -0.2091  0.4391
 1365SOL    HW3 5459   2.919   3.673   2.315 -0.1399 -0.2671  0.7492
 1365SOL    MW4 5460   2.925   3.586   2.313 -0.0336 -0.2419 -0.2493
 1366SOL     OW 5461   2.939   3.858   2.356  0.1277  0.4451 -0.1817
 1366SOL    HW2 5462   2.923   3.848   2.450 -0.1207 -0.2613 -0.2930
 1366SOL    HW3 5463   2.875   3.924   2.328 -0.1636  0.2590  0.0421
 1366SOL    MW4 5464   2.928   3.865   2.365  0.0565  0.3274 -0.1668
 1367SOL     OW 5465   2.675   3.994   2.321  0.1079  0.8665  0.5931
 1367SOL    HW2 5466   2.600   3.949   2.360  0.7598  1.1598  2.2320
 1367SOL    HW3 5467   2.658   3.992   2.227 -1.4176 -0.0226  0.8697
 1367SOL    MW4 5468   2.663   3.988   2.314 -0.0074  0.7879  0.8459
 1368SOL     OW 5469   2.734   4.253   2.349 -0.1170  0.3781 -0.1010
 1368SOL    HW2 5470   2.734   4.281   2.440 -3.0470  0.9778 -0.2403
 1368SOL    HW3 5471   2.723   4.158   2.353 -3.4487  0.7085  0.1908
 1368SOL    MW4 5472   2.732   4.244   2.361 -0.9431  0.5008 -0.0809
 1369SOL     OW 5473   2.943   4.389   2.239 -0.6799 -0.5646  0.5596
 1369SOL    HW2 5474   3.009   4.326   2.267 -1.2506 -0.5865  1.8752
 1369SOL    HW3 5475   2.860   4.352   2.269 -1.1365  0.2319  0.2941
 1369SOL    MW4 5476   2.940   4.376   2.246 -0.8154 -0.4624  0.6981
 1370SOL     OW 5477   3.372   4.652   2.342 -0.9499 -0.4103  0.2392
 1370SOL    HW2 5478   3.371   4.659   2.437 -0.3456 -0.4595  0.2497
 1370SOL    HW3 5479   3.459   4.684   2.316 -0.8690 -1.0110 -0.2459
 1370SOL    MW4 5480   3.383   4.657   2.351 -0.8595 -0.4961  0.1766
 1371SOL     OW 5481   3.164   0.120   2.216 -0.2326  0.0349 -0.3464
 1371SOL    HW2 5482   3.153   0.201   2.266 -1.2689 -0.4506  0.2112
 1371SOL    HW3 5483   3.242   0.080   2.254  0.0409  0.5611 -0.3405
 1371SOL    MW4 5484   3.173   0.126   2.228 -0.3332  0.0403 -0.2720
 1372SOL     OW 5485   3.139   0.348   2.365 -0.7888  0.1566  0.4663
 1372SOL    HW2 5486   3.212   0.395   2.324  0.2492  0.4321  2.5156
 1372SOL    HW3 5487   3.061   0.392   2.332 -0.0628 -0.2789 -1.9327
 1372SOL    MW4 5488   3.138   0.360   2.355 -0.5560  0.1355  0.4201
 1373SOL     OW 5489   3.342   0.482   2.260  0.8090  0.0494  0.1942
 1373SOL    HW2 5490   3.413   0.423   2.285  0.5964 -0.8529 -1.2685
 1373SOL    HW3 5491   3.360   0.504   2.169  0.3285  1.4632  0.4317
 1373SOL    MW4 5492   3.354   0.477   2.251  0.7176  0.1169  0.0326
 1374SOL     OW 5493   3.338   0.765   2.347  0.4242  0.0856 -0.3065
 1374SOL    HW2 5494   3.411   0.811   2.305 -0.8180  0.6357 -1.9519
 1374SOL    HW3 5495   3.348   0.674   2.321  0.1977  0.2620 -1.0192
 1374SOL    MW4 5496   3.349   0.759   2.338  0.2304  0.1815 -0.6176
 1375SOL     OW 5497   3.117   0.890   2.241  0.1572  0.2524 -0.2255
 1375SOL    HW2 5498   3.192   0.835   2.264 -1.2897 -1.8011 -0.2508
 1375SOL    HW3 5499   3.043   0.851   2.289 -0.9508  2.0590 -0.4187
 1375SOL    MW4 5500   3.117   0.878   2.250 -0.1799  0.2199 -0.2543
 1376SOL     OW 5501   3.127   1.132   2.371  0.4306  0.1387 -0.1308
 1376SOL    HW2 5502   3.209   1.163   2.332 -0.8236  0.8502 -2.2986
 1376SOL    HW3 5503   3.114   1.045   2.334 -0.8659  0.8973 -1.5011
 1376SOL    MW4 5504   3.136   1.125   2.361  0.0940  0.3327 -0.5976
 1377SOL     OW 5505   3.329   1.268   2.240  0.6983 -0.2271 -0.1796
 1377SOL    HW2 5506   3.419   1.243   2.261  1.0711  1.0454 -0.2531
 1377SOL    HW3 5507   3.318   1.355   2.278 -0.7978 -0.7296  0.6169
 1377SOL    MW4 5508   3.339   1.276   2.248  0.5501 -0.1255 -0.0842
 1378SOL     OW 5509   3.369   1.518   2.370  0.1997 -0.3440  0.2127
 1378SOL    HW2 5510   3.366   1.527   2.465  3.1836 -1.0074  0.4387
 1378SOL    HW3 5511   3.289   1.560   2.338  0.5396  2.4529  2.8259
 1378SOL    MW4 5512   3.358   1.525   2.378  0.6382 -0.0625  0.5873
 1379SOL     OW 5513   3.149   1.629   2.283  0.1441  0.2001 -0.3649
 1379SOL    HW2 5514   3.155   1.709   2.335  0.5211  0.1542 -0.3388
 1379SOL    HW3 5515   3.064   1.592   2.306  0.9013 -0.5396  1.2374
 1379SOL    MW4 5516   3.139   1.635   2.293  0.2937  0.0965 -0.1501
 1380SOL     OW 5517   3.104   1.914   2.345  0.4429  0.0220  0.1467
 1380SOL    HW2 5518   3.088   1.927   2.438  0.8051  1.7114 -0.0068
 1380SOL    HW3 5519   3.186   1.962   2.328 -0.1769  0.6091 -1.2448
 1380SOL    MW4 5520   3.113   1.922   2.355  0.4089  0.3224 -0.0572
 1381SOL     OW 5521   3.356   2.039   2.299 -0.0055 -0.0359 -0.1241
 1381SOL    HW2 5522   3.424   1.973   2.319  0.3561  0.6330  0.8999
 1381SOL    HW3 5523   3.372   2.063   2.208  0.3259 -0.8351 -0.2812
 1381SOL    MW4 5524   3.367   2.033   2.290  0.0859 -0.0531 -0.0097
 1382SOL     OW 5525   3.393   2.290   2.404  0.2964 -0.0111 -0.3538
 1382SOL    HW2 5526   3.332   2.337   2.347  0.3039 -1.1998 -1.3619
 1382SOL    HW3 5527   3.386   2.199   2.377 -0.2583 -0.7256  2.0530
 1382SOL    MW4 5528   3.384   2.284   2.393  0.2242 -0.2622 -0.1693
 1383SOL     OW 5529   3.206   2.440   2.254 -0.5479  0.3528 -0.0520
 1383SOL    HW2 5530   3.217   2.531   2.281  0.2836  0.2784 -0.1041
 1383SOL    HW3 5531   3.117   2.417   2.279 -0.1849  0.6373  1.5490
 1383SOL    MW4 5532   3.196   2.449   2.261 -0.3903  0.3805  0.1524
 1384SOL     OW 5533   3.193   2.700   2.360 -0.2242  0.0482 -0.4937
 1384SOL    HW2 5534   3.181   2.695   2.455  0.3732  0.3075 -0.4031
 1384SOL    HW3 5535   3.105   2.715   2.326 -0.4628 -0.1893  0.0084
 1384SOL    MW4 5536   3.180   2.702   2.368 -0.1769  0.0511 -0.4155
 1385SOL     OW 5537   3.428   2.807   2.256 -0.0102 -0.2265 -0.1044
 1385SOL    HW2 5538   3.432   2.894   2.296  0.5252 -0.6693  0.8358
 1385SOL    HW3 5539   3.342   2.773   2.283  0.0224 -0.2182  0.0090
 1385SOL    MW4 5540   3.417   2.814   2.265  0.0647 -0.2838  0.0346
 1386SOL     OW 5541   3.412   3.080   2.355 -0.0432 -0.1594 -0.1181
 1386SOL    HW2 5542   3.484   3.135   2.324  0.4581 -0.4771  0.4688
 1386SOL    HW3 5543   3.333   3.125   2.326  0.4040  0.0223 -1.0501
 1386SOL    MW4 5544   3.411   3.094   2.347  0.0820 -0.1773 -0.1637
 1387SOL     OW 5545   3.149   3.173   2.255 -0.7861  0.3045  0.0752
 1387SOL    HW2 5546   3.150   3.267   2.271 -1.7683  0.4724 -0.7980
 1387SOL    HW3 5547   3.183   3.163   2.166 -0.2475 -0.2151  0.3276
 1387SOL    MW4 5548   3.154   3.184   2.246 -0.8447  0.2581 -0.0067
 1388SOL     OW 5549   3.151   3.438   2.342  0.2363  0.3861  0.0412
 1388SOL    HW2 5550   3.160   3.434   2.437  1.0166 -1.3011 -0.0912
 1388SOL    HW3 5551   3.230   3.482   2.312 -0.1876  1.2675  0.1779
 1388SOL    MW4 5552   3.162   3.443   2.351  0.2833  0.2798  0.0418
 1389SOL     OW 5553   3.372   3.588   2.264  0.5524  0.4478 -0.1564
 1389SOL    HW2 5554   3.446   3.545   2.307 -0.4254 -2.0798 -0.9346
 1389SOL    HW3 5555   3.381   3.565   2.172 -1.2528  0.0251 -0.2449
 1389SOL    MW4 5556   3.383   3.579   2.258  0.1852  0.0585 -0.2707
 1390SOL     OW 5557   3.394   3.836   2.385  1.0069 -0.3743 -0.3701
 1390SOL    HW2 5558   3.457   3.889   2.336 -0.0762 -1.0818 -2.5847
 1390SOL    HW3 5559   3.398   3.750   2.343 -1.9220 -0.2447 -1.0004
 1390SOL    MW4 5560   3.403   3.831   2.373  0.4775 -0.4506 -0.7454
 1391SOL     OW 5561   3.176   3.940   2.245  0.1457  0.0894  0.4297
 1391SOL    HW2 5562   3.246   3.910   2.304  0.6192 -0.1721 -0.2664
 1391SOL    HW3 5563   3.096   3.903   2.282  0.4756 -0.2987  0.7589
 1391SOL    MW4 5564   3.175   3.931   2.258  0.2517  0.0037  0.3813
 1392SOL     OW 5565   3.159   4.224   2.329 -0.2293 -0.4856 -0.2130
 1392SOL    HW2 5566   3.229   4.276   2.290 -1.1897 -0.3239 -1.7912
 1392SOL    HW3 5567   3.178   4.134   2.301  0.1107 -0.6406  0.5152
 1392SOL    MW4 5568   3.171   4.219   2.320 -0.3111 -0.4847 -0.3252
 1393SOL     OW 5569   3.367   4.391   2.250  0.4822 -0.2604  0.2035
 1393SOL    HW2 5570   3.349   4.470   2.301 -1.5731 -0.9065  0.5295
 1393SOL    HW3 5571   3.350   4.416   2.159 -0.4581 -0.3693  0.3354
 1393SOL    MW4 5572   3.362   4.405   2.245  0.0870 -0.3600  0.2639
 1394SOL     OW 5573   3.815   4.631   2.355 -0.0586  0.1118  0.3335
 1394SOL    HW2 5574   3.811   4.627   2.450 -0.4861 -1.2421  0.2690
 1394SOL    HW3 5575   3.899   4.673   2.337  1.2214 -1.9089  1.3067
 1394SOL    MW4 5576   3.826   4.636   2.365  0.0539 -0.3334  0.4534
 1395SOL     OW 5577   3.601   0.078   2.223 -0.2462  0.1930  0.5779
 1395SOL    HW2 5578   3.595   0.163   2.265  2.2341  1.7385 -2.0368
 1395SOL    HW3 5579   3.673   0.033   2.269 -1.7379 -0.6661  2.1435
 1395SOL    MW4 5580   3.610   0.083   2.235 -0.1158  0.2836  0.4395
 1396SOL     OW 5581   3.588   0.307   2.378 -0.1338 -0.4624 -0.1020
 1396SOL    HW2 5582   3.593   0.327   2.471  2.6539 -1.6485  0.0527
 1396SOL    HW3 5583   3.665   0.349   2.340 -0.4568 -1.2117 -1.6355
 1396SOL    MW4 5584   3.599   0.315   2.385  0.1914 -0.7177 -0.2839
 1397SOL     OW 5585   3.783   0.470   2.283  0.4933  0.1577 -0.0252
 1397SOL    HW2 5586   3.751   0.558   2.300 -0.7829 -0.4085  0.6048
 1397SOL    HW3 5587   3.803   0.469   2.189  1.1469  1.2999  0.0969
 1397SOL    MW4 5588   3.782   0.481   2.272  0.4112  0.2337  0.0741
 1398SOL     OW 5589   3.793   0.766   2.356 -0.2134 -0.0942 -0.3698
 1398SOL    HW2 5590   3.815   0.774   2.449  2.1126 -1.4674 -0.7687
 1398SOL    HW3 5591   3.867   0.806   2.310 -1.3154  0.5236 -1.6559
 1398SOL    MW4 5592   3.806   0.773   2.362 -0.0519 -0.1938 -0.5921
 1399SOL     OW 5593   3.564   0.906   2.229 -0.2679 -0.2008  0.3015
 1399SOL    HW2 5594   3.640   0.876   2.280 -1.4293 -1.5167  1.2998
 1399SOL    HW3 5595   3.596   0.909   2.139  0.9070 -1.0265  0.6695
 1399SOL    MW4 5596   3.578   0.902   2.224 -0.2661 -0.4834  0.4817
 1400SOL     OW 5597   3.577   1.178   2.347 -0.0558 -0.3906 -0.2400
 1400SOL    HW2 5598   3.588   1.172   2.442 -0.9404 -0.8446 -0.1567
 1400SOL    HW3 5599   3.563   1.088   2.319 -0.8810 -0.1396 -0.6583
 1400SOL    MW4 5600   3.576   1.165   2.356 -0.2814 -0.4174 -0.2842
 1401SOL     OW 5601   3.820   1.273   2.254  0.1502 -0.4419  0.2548
 1401SOL    HW2 5602   3.818   1.356   2.302  1.6718 -0.5707  0.5889
 1401SOL    HW3 5603   3.744   1.225   2.286 -0.4065  0.5738  0.4999
 1401SOL    MW4 5604   3.810   1.278   2.264  0.2775 -0.3249  0.3312
 1402SOL     OW 5605   3.831   1.513   2.405  0.0004 -0.5877  0.1281
 1402SOL    HW2 5606   3.831   1.529   2.499  0.8036  0.9804 -0.1219
 1402SOL    HW3 5607   3.747   1.549   2.375 -0.2044 -0.9835  0.2207
 1402SOL    MW4 5608   3.820   1.520   2.413  0.0793 -0.4330  0.1073
 1403SOL     OW 5609   3.606   1.654   2.289 -0.1498 -0.2710 -0.1301
 1403SOL    HW2 5610   3.521   1.616   2.310 -0.1337 -0.6358 -0.7094
 1403SOL    HW3 5611   3.615   1.642   2.194  0.9851 -1.1586  0.0745
 1403SOL    MW4 5612   3.596   1.647   2.279  0.0020 -0.4363 -0.1795
 1404SOL     OW 5613   3.570   1.896   2.403  0.0255  0.2423 -0.1125
 1404SOL    HW2 5614   3.637   1.937   2.349 -0.8298  0.7852 -0.7812
 1404SOL    HW3 5615   3.576   1.803   2.380  0.5086  0.2935 -0.2079
 1404SOL    MW4 5616   3.580   1.889   2.392 -0.0236  0.3207 -0.2133
 1405SOL     OW 5617   3.777   2.031   2.291 -0.4268  0.8566  0.1015
 1405SOL    HW2 5618   3.851   1.983   2.326  1.2686  2.7131 -0.8691
 1405SOL    HW3 5619   3.786   2.024   2.196 -2.4422 -0.2945 -0.0438
 1405SOL    MW4 5620   3.788   2.023   2.283 -0.4691  0.9497 -0.0457
 1406SOL     OW 5621   3.834   2.277   2.391  0.1677  0.2189  0.1688
 1406SOL    HW2 5622   3.761   2.328   2.355 -0.1652 -0.3787  0.0058
 1406SOL    HW3 5623   3.822   2.189   2.356  1.0470  0.1532  0.0238
 1406SOL    MW4 5624   3.823   2.272   2.381  0.2398  0.1314  0.1281
 1407SOL     OW 5625   3.633   2.410   2.270  0.1941  0.0887 -0.1376
 1407SOL    HW2 5626   3.566   2.360   2.317 -0.2221  0.2920 -0.5214
 1407SOL    HW3 5627   3.617   2.393   2.178  1.6047 -1.0709 -0.1867
 1407SOL    MW4 5628   3.622   2.401   2.264  0.3253 -0.0375 -0.1947
 1408SOL     OW 5629   3.643   2.689   2.358 -0.1539  0.0119  0.2499
 1408SOL    HW2 5630   3.636   2.603   2.317  1.9389 -0.9787  1.9062
 1408SOL    HW3 5631   3.558   2.730   2.342 -1.2801 -2.4569 -0.3344
 1408SOL    MW4 5632   3.631   2.683   2.351 -0.0264 -0.4445  0.3913
 1409SOL     OW 5633   3.858   2.844   2.272 -0.3679  0.1867 -0.1201
 1409SOL    HW2 5634   3.841   2.931   2.309 -1.2294  0.3096 -0.7946
 1409SOL    HW3 5635   3.785   2.791   2.303  0.7622 -0.5934  1.2373
 1409SOL    MW4 5636   3.846   2.849   2.281 -0.3324  0.1000 -0.0300
 1410SOL     OW 5637   3.825   3.120   2.402  0.5877  0.1931  0.5854
 1410SOL    HW2 5638   3.825   3.096   2.494  0.1044 -0.2158  0.4777
 1410SOL    HW3 5639   3.912   3.158   2.387  1.0679 -0.7586  0.9342
 1410SOL    MW4 5640   3.837   3.122   2.412  0.5873  0.0136  0.6172
 1411SOL     OW 5641   3.635   3.227   2.240  0.0365 -0.7723  0.2406
 1411SOL    HW2 5642   3.627   3.314   2.280 -0.3825 -0.2356 -0.9844
 1411SOL    HW3 5643   3.705   3.184   2.290 -0.3775 -0.0703  1.4418
 1411SOL    MW4 5644   3.643   3.233   2.252 -0.0734 -0.6089  0.2374
 1412SOL     OW 5645   3.613   3.481   2.365  0.3487  0.2217  0.6346
 1412SOL    HW2 5646   3.632   3.484   2.458 -0.9917  0.7800  0.9051
 1412SOL    HW3 5647   3.689   3.524   2.324  0.8569  0.1363  1.4681
 1412SOL    MW4 5648   3.626   3.487   2.372  0.2389  0.2841  0.7803
 1413SOL     OW 5649   3.841   3.622   2.295 -0.3808 -0.0231  0.1913
 1413SOL    HW2 5650   3.838   3.711   2.332  2.0374  0.2274 -0.1412
 1413SOL    HW3 5651   3.847   3.635   2.200  0.0463 -0.5489  0.1447
 1413SOL    MW4 5652   3.841   3.636   2.287 -0.0054 -0.0594  0.1413
 1414SOL     OW 5653   3.781   3.917   2.338  0.0375 -0.1280 -0.5363
 1414SOL    HW2 5654   3.800   3.908   2.432 -0.6219 -1.8720 -0.5482
 1414SOL    HW3 5655   3.857   3.965   2.303  1.5468 -1.7108  0.4450
 1414SOL    MW4 5656   3.794   3.922   2.346  0.1496 -0.5669 -0.4084
 1415SOL     OW 5657   3.553   4.002   2.230  0.1118 -0.3055 -0.5312
 1415SOL    HW2 5658   3.549   4.097   2.242  0.4516 -0.0392 -2.3910
 1415SOL    HW3 5659   3.638   3.977   2.268  0.0717  0.1446 -0.1412
 1415SOL    MW4 5660   3.564   4.011   2.236  0.1514 -0.2110 -0.7251
 1416SOL     OW 5661   3.598   4.275   2.337  0.4251 -0.5242  0.1056
 1416SOL    HW2 5662   3.683   4.301   2.300  0.4258  0.1008  0.5472
 1416SOL    HW3 5663   3.536   4.340   2.305  0.3020 -0.3770  0.6261
 1416SOL    MW4 5664   3.601   4.287   2.328  0.4090 -0.4223  0.2325
 1417SOL     OW 5665   3.841   4.396   2.238 -0.1935  0.0507  0.1970
 1417SOL    HW2 5666   3.924   4.358   2.266 -0.7324 -0.6143  0.9123
 1417SOL    HW3 5667   3.842   4.484   2.274 -0.0335 -0.1367  0.6530
 1417SOL    MW4 5668   3.852   4.402   2.246 -0.2435 -0.0618  0.3516
 1418SOL     OW 5669   4.235   4.638   2.380 -0.2986 -0.4006 -0.2086
 1418SOL    HW2 5670   4.238   4.649   2.475 -1.7385 -0.7861 -0.1085
 1418SOL    HW3 5671   4.301   4.700   2.346 -1.2709  1.2742  0.9113
 1418SOL    MW4 5672   4.244   4.648   2.388 -0.6168 -0.2305 -0.0476
 1419SOL     OW 5673   4.026   0.112   2.283 -0.5342 -0.3095  0.3876
 1419SOL    HW2 5674   4.018   0.201   2.315 -0.4557  0.3410 -1.3167
 1419SOL    HW3 5675   4.101   0.076   2.329  0.1249  0.8873  0.2649
 1419SOL    MW4 5676   4.035   0.119   2.293 -0.4369 -0.0657  0.1465
 1420SOL     OW 5677   4.050   0.401   2.399 -0.0037 -0.6443  0.0455
 1420SOL    HW2 5678   4.124   0.414   2.339 -1.1597  0.6694 -1.1069
 1420SOL    HW3 5679   3.975   0.439   2.354 -0.9626  0.0941  2.1872
 1420SOL    MW4 5680   4.050   0.408   2.385 -0.2827 -0.3735  0.1761
 1421SOL     OW 5681   4.265   0.461   2.245 -0.2910 -0.2331 -0.0513
 1421SOL    HW2 5682   4.272   0.552   2.272 -0.0416  0.3664 -2.0178
 1421SOL    HW3 5683   4.343   0.419   2.280  0.7219  0.8250 -0.9772
 1421SOL    MW4 5684   4.276   0.468   2.253 -0.1245 -0.0144 -0.4329
 1422SOL     OW 5685   4.259   0.730   2.332  0.0710  0.5470 -0.5865
 1422SOL    HW2 5686   4.185   0.789   2.316 -0.6921 -0.4545 -0.7836
 1422SOL    HW3 5687   4.336   0.786   2.325 -0.7266  1.9102  1.0311
 1422SOL    MW4 5688   4.259   0.746   2.329 -0.1349  0.5947 -0.3991
 1423SOL     OW 5689   4.026   0.876   2.283 -0.1575  0.1047  0.0184
 1423SOL    HW2 5690   4.046   0.965   2.313  0.1440  0.3415 -0.8468
 1423SOL    HW3 5691   4.035   0.881   2.187 -0.0423 -0.8788 -0.0278
 1423SOL    MW4 5692   4.030   0.888   2.274 -0.1025  0.0062 -0.1019
 1424SOL     OW 5693   4.059   1.141   2.353  0.0454  0.6147  0.0550
 1424SOL    HW2 5694   4.064   1.168   2.445  2.0174 -0.4124  0.2745
 1424SOL    HW3 5695   3.982   1.187   2.318  0.2011  2.2326  1.8010
 1424SOL    MW4 5696   4.049   1.150   2.360  0.3261  0.6926  0.3143
 1425SOL     OW 5697   4.251   1.327   2.287 -0.6028 -0.0352  0.3850
 1425SOL    HW2 5698   4.177   1.266   2.286 -0.0686 -0.6935  1.0032
 1425SOL    HW3 5699   4.324   1.276   2.323  0.0534  0.7247  0.1348
 1425SOL    MW4 5700   4.251   1.312   2.292 -0.4458 -0.0218  0.4336
 1426SOL     OW 5701   4.272   1.576   2.407  0.4791 -0.2221  0.1998
 1426SOL    HW2 5702   4.253   1.490   2.371 -0.4718  0.5888 -1.3004
 1426SOL    HW3 5703   4.354   1.602   2.366  0.2648 -0.0043 -0.0908
 1426SOL    MW4 5704   4.280   1.568   2.397  0.3253 -0.0864 -0.0365
 1427SOL     OW 5705   4.043   1.637   2.257 -0.6807  0.1366 -0.5907
 1427SOL    HW2 5706   4.122   1.619   2.308 -0.4142  0.4142 -0.9012
 1427SOL    HW3 5707   3.971   1.610   2.314 -0.3774  0.2389 -0.1557
 1427SOL    MW4 5708   4.044   1.631   2.271 -0.6055  0.1867 -0.5743
 1428SOL     OW 5709   4.023   1.898   2.370  0.1506  0.2249 -0.2688
 1428SOL    HW2 5710   4.032   1.887   2.465  1.4495  0.1224 -0.3935
 1428SOL    HW3 5711   4.050   1.813   2.334  0.4785  0.5410 -0.7705
 1428SOL    MW4 5712   4.028   1.885   2.378  0.3652  0.2531 -0.3515
 1429SOL     OW 5713   4.251   2.032   2.305 -0.1224 -0.0046 -0.0885
 1429SOL    HW2 5714   4.222   2.122   2.313 -2.8115 -0.9269  1.1007
 1429SOL    HW3 5715   4.176   1.979   2.332  1.5176 -2.6007 -0.3275
 1429SOL    MW4 5716   4.237   2.037   2.310 -0.2608 -0.4688  0.0369
 1430SOL     OW 5717   4.226   2.292   2.349 -0.2090 -0.2757  0.2020
 1430SOL    HW2 5718   4.147   2.338   2.322  0.2024  0.6362  0.5160
 1430SOL    HW3 5719   4.298   2.346   2.315  0.2894 -0.3478  1.1030
 1430SOL    MW4 5720   4.225   2.305   2.341 -0.0889 -0.1649  0.3623
 1431SOL     OW 5721   4.013   2.441   2.270 -0.3636 -0.2586  0.1616
 1431SOL    HW2 5722   4.016   2.515   2.330  0.3048 -0.4580  0.3805
 1431SOL    HW3 5723   3.939   2.389   2.300 -0.7568  0.2496  0.0846
 1431SOL    MW4 5724   4.004   2.444   2.282 -0.3273 -0.2179  0.1804
 1432SOL     OW 5725   4.025   2.696   2.423 -0.1770  0.2712  0.1479
 1432SOL    HW2 5726   4.026   2.705   2.518 -1.0251  0.1963  0.1693
 1432SOL    HW3 5727   3.946   2.743   2.395 -1.2569 -1.7489 -0.2992
 1432SOL    MW4 5728   4.014   2.704   2.431 -0.4313 -0.0052  0.0917
 1433SOL     OW 5729   4.225   2.839   2.307 -0.1410 -0.2325 -0.5374
 1433SOL    HW2 5730   4.148   2.798   2.347  0.4281 -0.2033  0.5997
 1433SOL    HW3 5731   4.298   2.782   2.330  0.3490  0.3364 -0.6728
 1433SOL    MW4 5732   4.225   2.826   2.315 -0.0013 -0.1536 -0.4053
 1434SOL     OW 5733   4.303   3.081   2.434  0.0677 -0.0533  0.2612
 1434SOL    HW2 5734   4.286   2.998   2.390  0.5920 -0.0474  0.0319
 1434SOL    HW3 5735   4.356   3.130   2.371 -1.1214  0.8658 -0.0276
 1434SOL    MW4 5736   4.308   3.077   2.420 -0.0200  0.0687  0.1928
 1435SOL     OW 5737   4.083   3.241   2.306 -0.1451 -0.0463  0.8043
 1435SOL    HW2 5738   4.120   3.328   2.318 -0.3842  0.0358  0.9396
 1435SOL    HW3 5739   4.147   3.182   2.345  0.6107 -0.0274 -0.3898
 1435SOL    MW4 5740   4.096   3.244   2.313 -0.0769 -0.0329  0.6646
 1436SOL     OW 5741   4.081   3.513   2.393  0.1404  0.3765 -0.1482
 1436SOL    HW2 5742   4.143   3.573   2.350 -0.2994 -0.0225 -1.3539
 1436SOL    HW3 5743   3.996   3.538   2.357  0.0375 -1.4380 -1.1900
 1436SOL    MW4 5744   4.078   3.524   2.382  0.0688  0.0845 -0.4447
 1437SOL     OW 5745   4.288   3.642   2.247 -0.3416  0.1136 -0.8386
 1437SOL    HW2 5746   4.288   3.737   2.259  2.5652  0.3823 -2.5215
 1437SOL    HW3 5747   4.259   3.630   2.156  0.6058 -0.5054 -1.0662
 1437SOL    MW4 5748   4.284   3.653   2.236  0.1669  0.0674 -1.0906
 1438SOL     OW 5749   4.228   3.912   2.325  0.3784 -0.1963 -0.0159
 1438SOL    HW2 5750   4.242   3.907   2.420  0.1860  1.8460  0.1506
 1438SOL    HW3 5751   4.304   3.959   2.292  1.1599 -2.1533 -1.1052
 1438SOL    MW4 5752   4.240   3.918   2.333  0.4561 -0.1850 -0.1377
 1439SOL     OW 5753   4.003   4.024   2.246  0.1530 -0.2951  0.2243
 1439SOL    HW2 5754   4.083   3.979   2.271 -0.0088 -0.2558  0.8215
 1439SOL    HW3 5755   4.011   4.038   2.151  1.0519  0.1166  0.3560
 1439SOL    MW4 5756   4.015   4.020   2.236  0.2502 -0.2356  0.3205
 1440SOL     OW 5757   4.076   4.278   2.369 -0.4781 -0.0658  0.3451
 1440SOL    HW2 5758   4.146   4.315   2.316  2.4163 -2.2737  2.4328
 1440SOL    HW3 5759   4.056   4.193   2.328  0.8827 -1.2107  1.9891
 1440SOL    MW4 5760   4.082   4.271   2.357  0.0834 -0.5081  0.8375
 1441SOL     OW 5761   4.274   4.413   2.227 -0.7179  0.1907  0.6690
 1441SOL    HW2 5762   4.263   4.484   2.290  0.9834  1.8678 -0.8891
 1441SOL    HW3 5763   4.351   4.366   2.258  1.1614  2.0483 -1.0687
 1441SOL    MW4 5764   4.282   4.416   2.239 -0.2455  0.6570  0.2342
 1442SOL     OW 5765   0.205   4.664   2.616  0.3404  0.0542 -0.6814
 1442SOL    HW2 5766   0.214   4.578   2.657  0.8748 -0.4558 -1.8413
 1442SOL    HW3 5767   0.119   4.696   2.644  1.1379  0.2119  1.7286
 1442SOL    MW4 5768   0.195   4.657   2.625  0.5162  0.0077 -0.5165
 1443SOL     OW 5769   4.464   0.121   2.714  0.1293  0.0585  0.1386
 1443SOL    HW2 5770   4.449   0.130   2.808 -0.5264 -1.1531  0.1592
 1443SOL    HW3 5771   4.466   0.211   2.682  1.3588  0.5212  1.4585
 1443SOL    MW4 5772   4.462   0.134   2.722  0.2050 -0.0403  0.3154
 1444SOL     OW 5773   4.480   0.386   2.619 -0.0366  0.2526 -0.6085
 1444SOL    HW2 5774   4.561   0.423   2.655 -0.3684  1.0081 -0.6378
 1444SOL    HW3 5775   4.494   0.385   2.524  0.2458 -0.3437 -0.5620
 1444SOL    MW4 5776   4.493   0.391   2.611 -0.0431  0.2736 -0.6062
 1445SOL     OW 5777   0.220   0.508   2.721  0.4361 -0.0603  0.3318
 1445SOL    HW2 5778   0.228   0.497   2.816  2.0748  0.2224  0.2365
 1445SOL    HW3 5779   0.294   0.459   2.685 -0.3950 -0.4898 -0.8297
 1445SOL    MW4 5780   0.231   0.500   2.729  0.5426 -0.0797  0.1660
 1446SOL     OW 5781   0.220   0.782   2.646  0.4012 -0.0960 -0.8369
 1446SOL    HW2 5782   0.302   0.811   2.686 -0.2264 -0.7216  0.9182
 1446SOL    HW3 5783   0.207   0.693   2.679 -0.6453 -0.2523 -1.6324
 1446SOL    MW4 5784   0.229   0.774   2.655  0.1803 -0.1991 -0.7103
 1447SOL     OW 5785   4.446   0.901   2.742 -0.4792 -0.0150 -0.1494
 1447SOL    HW2 5786   4.383   0.858   2.684  0.4741 -0.7238 -0.6783
 1447SOL    HW3 5787   4.532   0.876   2.707  0.1020  1.8902 -0.1620
 1447SOL    MW4 5788   4.449   0.892   2.730 -0.2768  0.1428 -0.2209
 1448SOL     OW 5789   4.463   1.157   2.656 -0.3188  0.2179  0.1477
 1448SOL    HW2 5790   4.547   1.172   2.698  0.1686 -0.2313 -0.6539
 1448SOL    HW3 5791   4.440   1.067   2.680  0.5661 -0.4825 -1.5632
 1448SOL    MW4 5792   4.471   1.147   2.665 -0.1377  0.0662 -0.1838
 1449SOL     OW 5793   0.213   1.265   2.752  0.1282 -0.1351  0.1390
 1449SOL    HW2 5794   0.293   1.227   2.715 -0.0361 -1.7950  1.4163
 1449SOL    HW3 5795   0.219   1.358   2.731  2.1611 -0.3176 -0.2418
 1449SOL    MW4 5796   0.224   1.273   2.745  0.3747 -0.3782  0.2573
 1450SOL     OW 5797   0.238   1.533   2.673 -0.4605  0.6032  0.3914
 1450SOL    HW2 5798   0.319   1.580   2.693 -0.4398  0.4957  0.5669
 1450SOL    HW3 5799   0.170   1.583   2.718 -0.3923  0.2653  0.8796
 1450SOL    MW4 5800   0.240   1.546   2.682 -0.4488  0.5444  0.4789
 1451SOL     OW 5801   0.041   1.678   2.782 -0.2132  0.2471 -0.1606
 1451SOL    HW2 5802   0.033   1.689   2.877 -0.4328  0.0421 -0.1575
 1451SOL    HW3 5803   0.026   1.766   2.746  0.0531  0.3630  0.0046
 1451SOL    MW4 5804   0.038   1.691   2.790 -0.2071  0.2354 -0.1384
 1452SOL     OW 5805   4.475   1.911   2.659  0.4337  0.2444 -0.0737
 1452SOL    HW2 5806   4.537   1.973   2.698 -0.4952  0.4983  1.0217
 1452SOL    HW3 5807   4.498   1.910   2.566  1.4938  1.0228  0.1658
 1452SOL    MW4 5808   4.487   1.919   2.652  0.4510  0.3806  0.1024
 1453SOL     OW 5809   0.185   2.066   2.756  0.0654  0.0457  0.4790
 1453SOL    HW2 5810   0.246   1.999   2.725 -0.7509 -0.9546  1.0060
 1453SOL    HW3 5811   0.203   2.142   2.701  0.6323 -0.7800 -0.4897
 1453SOL    MW4 5812   0.195   2.067   2.745  0.0325 -0.1952  0.4207
 1454SOL     OW 5813   0.251   2.303   2.606 -0.0230 -0.1027 -0.4651
 1454SOL    HW2 5814   0.329   2.350   2.635  1.2125 -2.2755 -0.1759
 1454SOL    HW3 5815   0.178   2.350   2.648  1.1671  1.5121 -0.1679
 1454SOL    MW4 5816   0.251   2.316   2.616  0.2970 -0.1764 -0.3877
 1455SOL     OW 5817   0.029   2.399   2.723  0.1224  0.5715  0.2241
 1455SOL    HW2 5818   0.013   2.393   2.817 -1.2168  1.1623  0.0430
 1455SOL    HW3 5819  -0.056   2.380   2.683  0.6626  0.4271 -0.8647
 1455SOL    MW4 5820   0.016   2.396   2.730  0.0169  0.6304  0.0565
 1456SOL     OW 5821   0.007   2.661   2.640  0.3278  0.2993  0.1836
 1456SOL    HW2 5822  -0.062   2.704   2.691  0.5422  0.6395  0.1939
 1456SOL    HW3 5823   0.003   2.569   2.666 -0.6956  0.1526 -0.4635
 1456SOL    MW4 5824  -0.003   2.655   2.651  0.2210  0.3248  0.0996
 1457SOL     OW 5825   0.226   2.800   2.750 -0.3692  0.4873 -0.0990
 1457SOL    HW2 5826   0.222   2.887   2.712  1.3719  0.6050 -0.0481
 1457SOL    HW3 5827   0.150   2.754   2.714 -1.2403  1.9776 -0.1995
 1457SOL    MW4 5828   0.215   2.805   2.741 -0.2544  0.6995 -0.1056
 1458SOL     OW 5829   0.216   3.072   2.629 -0.2090 -0.0124 -0.0767
 1458SOL    HW2 5830   0.289   3.131   2.645 -0.3745 -0.3798  2.1494
 1458SOL    HW3 5831   0.198   3.081   2.535  0.4363  2.6709  0.0210
 1458SOL    MW4 5832   0.223   3.081   2.619 -0.1457  0.2932  0.2299
 1459SOL     OW 5833   0.008   3.238   2.737  0.0599 -0.3888  0.0727
 1459SOL    HW2 5834  -0.066   3.178   2.732  0.2904 -0.6324 -0.5001
 1459SOL    HW3 5835   0.080   3.191   2.696 -0.2750  1.0489 -2.2687
 1459SOL    MW4 5836   0.008   3.224   2.731  0.0461 -0.2312 -0.3118
 1460SOL     OW 5837   0.016   3.494   2.617 -0.3718 -0.2936  0.1122
 1460SOL    HW2 5838   0.074   3.541   2.677  0.1753 -0.1285 -0.5400
 1460SOL    HW3 5839   0.008   3.407   2.655 -1.6532  0.4223  1.5073
 1460SOL    MW4 5840   0.023   3.489   2.630 -0.4687 -0.1774  0.2102
 1461SOL     OW 5841   0.209   3.637   2.752  0.0222  0.1524 -0.0222
 1461SOL    HW2 5842   0.219   3.625   2.846  0.4763 -2.2367 -0.3595
 1461SOL    HW3 5843   0.272   3.577   2.713 -0.1372  1.1409 -1.8713
 1461SOL    MW4 5844   0.219   3.628   2.759  0.0611 -0.0324 -0.3107
 1462SOL     OW 5845   0.228   3.878   2.632  0.5338  0.3567  0.1797
 1462SOL    HW2 5846   0.218   3.789   2.664  0.4008  0.5240  0.6084
 1462SOL    HW3 5847   0.239   3.868   2.537 -1.9841  0.0192 -0.1155
 1462SOL    MW4 5848   0.228   3.865   2.624  0.1840  0.3343  0.1973
 1463SOL     OW 5849   4.484   3.996   2.719 -0.7212  0.2881 -0.6059
 1463SOL    HW2 5850   4.473   4.079   2.672  0.6704 -0.2698 -1.9510
 1463SOL    HW3 5851   4.565   3.960   2.684 -1.5806 -1.8988 -0.3973
 1463SOL    MW4 5852   4.493   4.002   2.708 -0.6510 -0.0741 -0.7558
 1464SOL     OW 5853   4.467   4.265   2.620 -0.0297 -0.3411  0.3328
 1464SOL    HW2 5854   4.391   4.305   2.662  0.5204  0.5701  0.4687
 1464SOL    HW3 5855   4.542   4.301   2.667  0.5565  0.0721 -0.9073
 1464SOL    MW4 5856   4.467   4.275   2.632  0.1202 -0.1664  0.1871
 1465SOL     OW 5857   0.197   4.394   2.726  0.0187 -0.1933 -0.2723
 1465SOL    HW2 5858   0.213   4.374   2.819  1.1570 -0.2697 -0.4793
 1465SOL    HW3 5859   0.262   4.342   2.679 -0.1357  0.3442 -1.0803
 1465SOL    MW4 5860   0.208   4.385   2.732  0.1485 -0.1324 -0.4062
 1466SOL     OW 5861   0.673   0.006   2.619 -0.5076  0.1887 -0.2379
 1466SOL    HW2 5862   0.748   0.047   2.662 -0.6895 -0.5386  0.8079
 1466SOL    HW3 5863   0.597   0.058   2.646 -0.8758 -1.3903  1.9354
 1466SOL    MW4 5864   0.673   0.018   2.628 -0.5802 -0.1156  0.1868
 1467SOL     OW 5865   0.431   0.123   2.711 -0.1515 -0.2712  0.4928
 1467SOL    HW2 5866   0.423   0.099   2.804 -1.7916 -2.6097 -0.2000
 1467SOL    HW3 5867   0.352   0.087   2.671  1.5659 -1.1423 -2.2045
 1467SOL    MW4 5868   0.419   0.115   2.718 -0.1413 -0.6947  0.0455
 1468SOL     OW 5869   0.446   0.383   2.604 -0.1842 -0.0313  0.1426
 1468SOL    HW2 5870   0.524   0.417   2.648 -0.2288  0.3616 -0.0810
 1468SOL    HW3 5871   0.438   0.292   2.635 -1.3282  0.8283  2.4652
 1468SOL    MW4 5872   0.455   0.375   2.614 -0.3410  0.1339  0.4195
 1469SOL     OW 5873   0.683   0.505   2.739  0.0064  0.3395 -0.0884
 1469SOL    HW2 5874   0.694   0.498   2.834 -2.3317 -1.8647  0.0799
 1469SOL    HW3 5875   0.759   0.460   2.702  0.5250  0.5323  0.7359
 1469SOL    MW4 5876   0.695   0.498   2.747 -0.2337  0.0742  0.0426
 1470SOL     OW 5877   0.652   0.763   2.616  0.4936 -0.3289  0.0987
 1470SOL    HW2 5878   0.739   0.798   2.637  0.7463 -1.0138  0.2076
 1470SOL    HW3 5879   0.648   0.679   2.661 -0.4344 -0.0590  0.5355
 1470SOL    MW4 5880   0.663   0.756   2.625  0.4045 -0.3836  0.1707
 1471SOL     OW 5881   0.450   0.910   2.763  0.1319  0.0751 -0.0771
 1471SOL    HW2 5882   0.449   0.980   2.698  1.1437  0.8418  0.7237
 1471SOL    HW3 5883   0.527   0.858   2.741  0.2119  0.0623  0.2393
 1471SOL    MW4 5884   0.460   0.912   2.751  0.2759  0.1745  0.0703
 1472SOL     OW 5885   0.444   1.168   2.637  0.0584  0.8210 -0.1955
 1472SOL    HW2 5886   0.525   1.208   2.667  0.9813 -0.3576 -1.0661
 1472SOL    HW3 5887   0.452   1.165   2.542  0.3951 -2.1419 -0.1375
 1472SOL    MW4 5888   0.456   1.172   2.629  0.2246  0.2746 -0.3027
 1473SOL     OW 5889   0.669   1.275   2.741  0.0173 -0.0012  0.2331
 1473SOL    HW2 5890   0.658   1.241   2.830 -0.8840 -1.2268 -0.3445
 1473SOL    HW3 5891   0.757   1.248   2.716  0.6829  1.2671  1.1411
 1473SOL    MW4 5892   0.679   1.267   2.749 -0.0138  0.0044  0.2767
 1474SOL     OW 5893   0.648   1.502   2.590  0.0625 -0.0178  0.2248
 1474SOL    HW2 5894   0.582   1.550   2.638  0.7710  1.1284  0.0655
 1474SOL    HW3 5895   0.660   1.421   2.640  0.0432  0.6977  1.3932
 1474SOL    MW4 5896   0.641   1.497   2.603  0.1534  0.2278  0.3580
 1475SOL     OW 5897   0.468   1.655   2.755  0.1553  0.0767 -0.3140
 1475SOL    HW2 5898   0.487   1.658   2.849 -1.2799  1.0339 -0.0390
 1475SOL    HW3 5899   0.453   1.746   2.730  1.2678 -0.0855 -1.6488
 1475SOL    MW4 5900   0.469   1.667   2.764  0.1127  0.1816 -0.4539
 1476SOL     OW 5901   0.404   1.915   2.650 -0.1966  0.2788 -0.5115
 1476SOL    HW2 5902   0.481   1.971   2.659 -0.2474  0.4144 -0.9230
 1476SOL    HW3 5903   0.393   1.904   2.555 -0.1926 -0.4129 -0.4356
 1476SOL    MW4 5904   0.413   1.921   2.639 -0.2028  0.2054 -0.5558
 1477SOL     OW 5905   0.662   2.029   2.712 -0.0985  0.1197 -0.0162
 1477SOL    HW2 5906   0.661   2.011   2.805  0.3603  0.0657 -0.0212
 1477SOL    HW3 5907   0.732   1.975   2.677 -0.0790  0.3525 -0.3475
 1477SOL    MW4 5908   0.671   2.020   2.719 -0.0354  0.1433 -0.0606
 1478SOL     OW 5909   0.648   2.306   2.606 -0.2575  0.1791 -0.0619
 1478SOL    HW2 5910   0.734   2.332   2.637  0.6488 -0.2699 -2.0984
 1478SOL    HW3 5911   0.641   2.213   2.627  0.1070  0.0212 -0.6174
 1478SOL    MW4 5912   0.658   2.297   2.613 -0.0899  0.0990 -0.4039
 1479SOL     OW 5913   0.447   2.410   2.762  0.5427 -0.3367 -0.1187
 1479SOL    HW2 5914   0.448   2.501   2.732  0.9377  0.1515  1.3411
 1479SOL    HW3 5915   0.525   2.371   2.722  0.4941  0.0251 -0.5700
 1479SOL    MW4 5916   0.458   2.416   2.753  0.5884 -0.2246  0.0144
 1480SOL     OW 5917   0.468   2.666   2.657  0.1042  0.3377 -0.2014
 1480SOL    HW2 5918   0.544   2.718   2.684  0.2566  0.1467 -0.2576
 1480SOL    HW3 5919   0.392   2.716   2.686  0.2489  0.6684 -0.3989
 1480SOL    MW4 5920   0.468   2.679   2.665  0.1434  0.3561 -0.2349
 1481SOL     OW 5921   0.694   2.819   2.724 -0.0791 -0.3053 -0.6370
 1481SOL    HW2 5922   0.687   2.814   2.819 -1.6884 -0.9829 -0.7741
 1481SOL    HW3 5923   0.676   2.911   2.704  2.6364  0.3787 -0.1351
 1481SOL    MW4 5924   0.691   2.830   2.734  0.0668 -0.3044 -0.5889
 1482SOL     OW 5925   0.662   3.084   2.659 -0.2348  0.3856 -0.7424
 1482SOL    HW2 5926   0.736   3.130   2.698 -0.6941  0.8044 -0.3577
 1482SOL    HW3 5927   0.681   3.081   2.565  0.2086  0.5916 -0.6583
 1482SOL    MW4 5928   0.674   3.090   2.652 -0.2369  0.4680 -0.6805
 1483SOL     OW 5929   0.424   3.234   2.729 -0.0318  0.2812 -0.6450
 1483SOL    HW2 5930   0.416   3.232   2.825 -0.1085  2.5510 -0.5736
 1483SOL    HW3 5931   0.502   3.183   2.710  0.2492  0.2013  0.6823
 1483SOL    MW4 5932   0.433   3.227   2.739 -0.0049  0.5701 -0.4605
 1484SOL     OW 5933   0.416   3.511   2.644 -0.1015 -0.5504 -0.4471
 1484SOL    HW2 5934   0.406   3.420   2.673 -0.0674 -0.6972 -0.8996
 1484SOL    HW3 5935   0.408   3.508   2.549 -1.9419  0.1865 -0.3275
 1484SOL    MW4 5936   0.414   3.499   2.635 -0.3398 -0.4725 -0.4910
 1485SOL     OW 5937   0.667   3.610   2.719 -0.0644  0.4139 -0.1303
 1485SOL    HW2 5938   0.675   3.605   2.814  1.2950  2.0327 -0.1395
 1485SOL    HW3 5939   0.579   3.576   2.701  0.7368 -2.7462  1.4195
 1485SOL    MW4 5940   0.656   3.605   2.729  0.2207  0.2105  0.0730
 1486SOL     OW 5941   0.670   3.881   2.636  0.3802 -0.9480 -0.2558
 1486SOL    HW2 5942   0.613   3.928   2.696  1.0969 -0.9127  0.4028
 1486SOL    HW3 5943   0.658   3.789   2.659  1.3297 -0.8728  0.5383
 1486SOL    MW4 5944   0.661   3.875   2.647  0.6000 -0.9334 -0.0642
 1487SOL     OW 5945   0.439   4.002   2.756  0.6298  0.4329 -0.5707
 1487SOL    HW2 5946   0.423   4.092   2.730 -2.3188  0.9386  2.5353
 1487SOL    HW3 5947   0.359   3.955   2.733  0.3591 -0.3809  1.8768
 1487SOL    MW4 5948   0.426   4.007   2.750  0.2050  0.3923  0.1620
 1488SOL     OW 5949   0.418   4.251   2.655  0.6336 -0.1707 -0.0549
 1488SOL    HW2 5950   0.486   4.315   2.671 -0.3898  1.0854 -0.6254
 1488SOL    HW3 5951   0.429   4.225   2.563  0.4070 -0.0321 -0.1228
 1488SOL    MW4 5952   0.428   4.256   2.645  0.4686  0.0133 -0.1391
 1489SOL     OW 5953   0.651   4.397   2.724 -0.0290 -0.3438 -0.0914
 1489SOL    HW2 5954   0.724   4.342   2.696  0.8446  1.1087 -0.7204
 1489SOL    HW3 5955   0.664   4.480   2.679 -2.2829 -0.1739 -0.5158
 1489SOL    MW4 5956   0.662   4.401   2.714 -0.2111 -0.1297 -0.2304
 1490SOL     OW 5957   1.129   4.611   2.649  0.4720 -0.6440 -0.3046
 1490SOL    HW2 5958   1.202   4.669   2.668 -0.1739 -0.0376  0.3872
 1490SOL    HW3 5959   1.155   4.526   2.685  1.2572 -0.6939 -0.9731
 1490SOL    MW4 5960   1.142   4.607   2.657  0.4904 -0.5706 -0.3016
 1491SOL     OW 5961   0.918   0.123   2.733 -0.6028  0.4263  0.2298
 1491SOL    HW2 5962   0.914   0.135   2.828 -1.6482 -0.3675  0.2877
 1491SOL    HW3 5963   0.988   0.059   2.720 -0.2079  0.8129  0.4355
 1491SOL    MW4 5964   0.927   0.117   2.743 -0.6886  0.3726  0.2646
 1492SOL     OW 5965   0.916   0.365   2.629  0.6749 -0.5545  0.4593
 1492SOL    HW2 5966   0.913   0.275   2.662  1.5983 -1.0164 -0.6938
 1492SOL    HW3 5967   0.908   0.356   2.534  0.7095  0.5915  0.3433
 1492SOL    MW4 5968   0.915   0.352   2.621  0.8013 -0.4643  0.2919
 1493SOL     OW 5969   1.151   0.491   2.731 -0.3131  0.2513  0.1302
 1493SOL    HW2 5970   1.138   0.579   2.695 -0.1136 -0.4531 -1.7633
 1493SOL    HW3 5971   1.080   0.439   2.693 -0.0602 -0.5323  0.7160
 1493SOL    MW4 5972   1.140   0.495   2.721 -0.2534  0.0550 -0.0423
 1494SOL     OW 5973   1.123   0.744   2.628  0.3429  0.2995  0.5659
 1494SOL    HW2 5974   1.203   0.788   2.658  0.3971  0.3491  0.3481
 1494SOL    HW3 5975   1.129   0.744   2.533  0.1583  0.1610  0.5526
 1494SOL    MW4 5976   1.134   0.750   2.620  0.3257  0.2877  0.5354
 1495SOL     OW 5977   0.889   0.890   2.693 -0.6147 -0.2831  0.2772
 1495SOL    HW2 5978   0.891   0.869   2.786 -0.2626 -0.4370  0.2359
 1495SOL    HW3 5979   0.964   0.843   2.656 -0.1699  0.5713  0.0808
 1495SOL    MW4 5980   0.899   0.881   2.700 -0.5096 -0.1907  0.2459
 1496SOL     OW 5981   0.914   1.194   2.634  0.5881  0.5364  0.1714
 1496SOL    HW2 5982   0.917   1.099   2.642 -1.8972  0.5888  2.2420
 1496SOL    HW3 5983   0.907   1.210   2.540  0.0032 -1.3634 -0.1177
 1496SOL    MW4 5984   0.914   1.184   2.623  0.1831  0.2927  0.4065
 1497SOL     OW 5985   1.142   1.319   2.743  0.2662  0.0119 -0.0620
 1497SOL    HW2 5986   1.133   1.411   2.716 -0.3250  0.0934  0.4155
 1497SOL    HW3 5987   1.064   1.276   2.708  0.3418 -0.2246  0.0609
 1497SOL    MW4 5988   1.131   1.326   2.735  0.1982 -0.0086  0.0172
 1498SOL     OW 5989   1.130   1.580   2.659  0.2022 -0.2211 -0.1675
 1498SOL    HW2 5990   1.044   1.615   2.682  0.4849  0.0710  0.4348
 1498SOL    HW3 5991   1.123   1.561   2.565  0.0506  1.4475 -0.5032
 1498SOL    MW4 5992   1.118   1.582   2.649  0.2195  0.0376 -0.1323
 1499SOL     OW 5993   0.867   1.640   2.708 -0.1224  0.2362 -0.1709
 1499SOL    HW2 5994   0.880   1.640   2.803  1.9789 -0.0263 -0.4306
 1499SOL    HW3 5995   0.788   1.589   2.695  0.1943 -0.6883  1.3721
 1499SOL    MW4 5996   0.859   1.634   2.719  0.1966  0.0796 -0.0016
 1500SOL     OW 5997   0.883   1.901   2.611 -0.3063  0.2153 -0.4662
 1500SOL    HW2 5998   0.950   1.933   2.671  0.3285 -0.7365 -0.6585
 1500SOL    HW3 5999   0.869   1.810   2.637  0.7169 -0.5169 -2.4137
 1500SOL    MW4 6000   0.890   1.893   2.622 -0.0875 -0.0069 -0.7485
 1501SOL     OW 6001   1.096   2.008   2.750 -0.5560  0.5873  0.2113
 1501SOL    HW2 6002   1.177   1.969   2.716 -0.2570  0.1874  1.3491
 1501SOL    HW3 6003   1.099   2.099   2.722 -0.0784  0.3825 -0.4131
 1501SOL    MW4 6004   1.107   2.015   2.742 -0.4535  0.5075  0.2791
 1502SOL     OW 6005   1.140   2.276   2.659  0.1655  0.6630 -0.3299
 1502SOL    HW2 6006   1.219   2.326   2.677  0.1810  0.7346 -0.6060
 1502SOL    HW3 6007   1.138   2.265   2.564  0.8546 -0.9860 -0.1782
 1502SOL    MW4 6008   1.150   2.281   2.649  0.2585  0.4549 -0.3463
 1503SOL     OW 6009   0.894   2.394   2.703 -0.1627  0.1821  0.5832
 1503SOL    HW2 6010   0.901   2.482   2.667  1.5410 -0.9405 -1.9492
 1503SOL    HW3 6011   0.983   2.359   2.699 -0.9964 -2.0156  0.5440
 1503SOL    MW4 6012   0.906   2.401   2.698 -0.0479 -0.2560  0.2439
 1504SOL     OW 6013   0.915   2.663   2.632  0.0054 -0.0468 -0.0702
 1504SOL    HW2 6014   0.993   2.695   2.677 -0.2201  0.9265 -0.3503
 1504SOL    HW3 6015   0.845   2.721   2.662 -0.7396 -1.2928  0.6509
 1504SOL    MW4 6016   0.916   2.675   2.642 -0.1227 -0.0828 -0.0120
 1505SOL     OW 6017   1.132   2.799   2.757 -0.3926 -0.5564  0.0911
 1505SOL    HW2 6018   1.148   2.815   2.851 -1.3392  0.2558  0.1254
 1505SOL    HW3 6019   1.219   2.783   2.721  0.0088 -0.6692  1.0746
 1505SOL    MW4 6020   1.146   2.799   2.765 -0.4645 -0.4641  0.2253
 1506SOL     OW 6021   1.124   3.068   2.690 -0.2151  0.1854  0.2285
 1506SOL    HW2 6022   1.115   2.980   2.727  0.7948 -0.6493 -1.4293
 1506SOL    HW3 6023   1.140   3.053   2.597 -1.5002  2.1926 -0.3383
 1506SOL    MW4 6024   1.125   3.054   2.683 -0.2514  0.3401 -0.0650
 1507SOL     OW 6025   0.890   3.202   2.746 -0.4726  0.2512 -0.1690
 1507SOL    HW2 6026   0.903   3.283   2.698  1.3591 -0.0065 -0.1449
 1507SOL    HW3 6027   0.966   3.148   2.723  0.2736 -0.0117  2.7032
 1507SOL    MW4 6028   0.902   3.205   2.737 -0.1325  0.1825  0.2131
 1508SOL     OW 6029   0.887   3.462   2.626  0.0000  0.0000 -0.3243
 1508SOL    HW2 6030   0.961   3.509   2.666  0.0000  0.0000 -0.3446
 1508SOL    HW3 6031   0.810   3.512   2.653  0.0000  0.0000 -0.3372
 1508SOL    MW4 6032   0.887   3.475   2.635  0.0000  0.0000 -0.3287
 1509SOL     OW 6033   1.102   3.599   2.741  0.0000  0.0000  0.0648
 1509SOL    HW2 6034   1.101   3.626   2.833  0.0000  0.0000  0.0652
 1509SOL    HW3 6035   1.100   3.681   2.692  0.0000  0.0000  0.0660
 1509SOL    MW4 6036   1.102   3.613   2.746  0.0000  0.0000  0.0650
 1510SOL     OW 6037   1.098   3.851   2.629  0.0000  0.0000 -0.0307
 1510SOL    HW2 6038   1.178   3.889   2.667  0.0000  0.0000 -0.0317
 1510SOL    HW3 6039   1.110   3.859   2.534  0.0000  0.0000 -0.0306
 1510SOL    MW4 6040   1.110   3.857   2.621  0.0000  0.0000 -0.0308
 1511SOL     OW 6041   0.893   4.008   2.747  0.0000  0.0000  0.2243
 1511SOL    HW2 6042   0.957   3.963   2.692  0.0000  0.0000  0.2166
 1511SOL    HW3 6043   0.809   3.969   2.721  0.0000  0.0000  0.2249
 1511SOL    MW4 6044   0.890   3.997   2.736  0.0000  0.0000  0.2233
 1512SOL     OW 6045   0.888   4.266   2.663  0.0000  0.0000  0.0639
 1512SOL    HW2 6046   0.892   4.173   2.688  0.0000  0.0000  0.0647
 1512SOL    HW3 6047   0.884   4.265   2.567  0.0000  0.0000  0.0641
 1512SOL    MW4 6048   0.888   4.254   2.654  0.0000  0.0000  0.0641
 1513SOL     OW 6049   1.144   4.351   2.757  0.0000  0.0000  0.0921
 1513SOL    HW2 6050   1.137   4.378   2.848  0.0000  0.0000  0.0906
 1513SOL    HW3 6051   1.055   4.327   2.731  0.0000  0.0000  0.0924
 1513SOL    MW4 6052   1.131   4.351   2.765  0.0000  0.0000  0.0919
 1514SOL     OW 6053   1.593   4.643   2.660  0.0000  0.0000 -0.0907
 1514SOL    HW2 6054   1.588   4.549   2.676  0.0000  0.0000 -0.0998
 1514SOL    HW3 6055   1.581   4.652   2.565  0.0000  0.0000 -0.0899
 1514SOL    MW4 6056   1.591   4.632   2.650  0.0000  0.0000 -0.0918
 1515SOL     OW 6057   1.351   0.086   2.719  0.0000  0.0000 -0.0690
 1515SOL    HW2 6058   1.350   0.171   2.673  0.0000  0.0000 -0.0850
 1515SOL    HW3 6059   1.437   0.049   2.698  0.0000  0.0000 -0.0389
 1515SOL    MW4 6060   1.362   0.092   2.710  0.0000  0.0000 -0.0671
 1516SOL     OW 6061   1.360   0.344   2.618  0.0000  0.0000 -0.3377
 1516SOL    HW2 6062   1.437   0.387   2.655  0.0000  0.0000 -0.3153
 1516SOL    HW3 6063   1.286   0.396   2.652  0.0000  0.0000 -0.3689
 1516SOL    MW4 6064   1.360   0.357   2.628  0.0000  0.0000 -0.3389
 1517SOL     OW 6065   1.581   0.463   2.746 -0.4948 -0.3050 -0.2662
 1517SOL    HW2 6066   1.662   0.415   2.736 -0.1407  0.3505 -0.5832
 1517SOL    HW3 6067   1.597   0.547   2.703 -0.6046  0.6625  1.5054
 1517SOL    MW4 6068   1.594   0.468   2.739 -0.4626 -0.0909 -0.0743
 1518SOL     OW 6069   1.618   0.714   2.639 -0.2407 -0.9062 -0.2703
 1518SOL    HW2 6070   1.534   0.759   2.654  0.1971 -0.5657  1.2443
 1518SOL    HW3 6071   1.621   0.701   2.544 -0.4800  2.1028 -0.7398
 1518SOL    MW4 6072   1.607   0.718   2.629 -0.2145 -0.4643 -0.1324
 1519SOL     OW 6073   1.367   0.854   2.699 -0.0058  0.1621  0.3934
 1519SOL    HW2 6074   1.357   0.854   2.794 -2.5516  0.1859  0.1801
 1519SOL    HW3 6075   1.363   0.947   2.675 -0.7248  0.0718  0.1586
 1519SOL    MW4 6076   1.365   0.867   2.708 -0.4366  0.1533  0.3343
 1520SOL     OW 6077   1.350   1.116   2.628 -0.3269  0.2770  0.1679
 1520SOL    HW2 6078   1.429   1.150   2.671  0.1992  1.5050 -1.7372
 1520SOL    HW3 6079   1.281   1.178   2.652 -0.5676 -0.3714  1.1954
 1520SOL    MW4 6080   1.352   1.129   2.637 -0.2893  0.3534  0.0521
 1521SOL     OW 6081   1.568   1.258   2.721 -0.0388  0.1912 -0.3016
 1521SOL    HW2 6082   1.578   1.248   2.815  0.4107  0.5851 -0.3039
 1521SOL    HW3 6083   1.642   1.210   2.684 -1.8182 -2.4432 -0.5709
 1521SOL    MW4 6084   1.579   1.250   2.728 -0.2142 -0.1044 -0.3375
 1522SOL     OW 6085   1.583   1.526   2.637 -0.3234 -0.6274 -0.2249
 1522SOL    HW2 6086   1.575   1.433   2.655  1.0662 -0.7203 -0.0473
 1522SOL    HW3 6087   1.579   1.533   2.542 -0.2441 -0.8896 -0.2469
 1522SOL    MW4 6088   1.581   1.515   2.627 -0.1296 -0.6742 -0.2044
 1523SOL     OW 6089   1.364   1.674   2.769 -0.4511  0.0518  0.0719
 1523SOL    HW2 6090   1.425   1.638   2.704  0.9317  0.2189  1.2549
 1523SOL    HW3 6091   1.277   1.657   2.732  0.2571 -1.6308 -0.9026
 1523SOL    MW4 6092   1.360   1.667   2.756 -0.1752 -0.1482  0.0994
 1524SOL     OW 6093   1.346   1.931   2.675  0.2711 -0.0844  0.3593
 1524SOL    HW2 6094   1.358   1.847   2.719 -2.0962 -0.5020  0.2840
 1524SOL    HW3 6095   1.353   1.910   2.581 -0.6112 -0.2743  0.3278
 1524SOL    MW4 6096   1.348   1.917   2.668 -0.1576 -0.1645  0.3452
 1525SOL     OW 6097   1.572   2.061   2.770  0.5420  0.0404 -0.1438
 1525SOL    HW2 6098   1.648   2.018   2.731  0.8377  1.0130 -0.6494
 1525SOL    HW3 6099   1.497   2.012   2.736  0.7458  1.4913 -2.7204
 1525SOL    MW4 6100   1.572   2.049   2.761  0.6079  0.3601 -0.5504
 1526SOL     OW 6101   1.595   2.287   2.630  0.1062 -0.1151  0.1637
 1526SOL    HW2 6102   1.661   2.345   2.666  0.3526  0.2733 -0.8893
 1526SOL    HW3 6103   1.586   2.217   2.694  0.8020  0.3668  0.7852
 1526SOL    MW4 6104   1.602   2.286   2.643  0.2305 -0.0002  0.1067
 1527SOL     OW 6105   1.387   2.434   2.727 -0.0265 -0.7785  0.2388
 1527SOL    HW2 6106   1.390   2.524   2.692 -1.8297 -1.5359 -2.0103
 1527SOL    HW3 6107   1.462   2.391   2.685 -0.0830 -0.7353  0.0920
 1527SOL    MW4 6108   1.397   2.440   2.717 -0.2719 -0.8727 -0.0773
 1528SOL     OW 6109   1.375   2.713   2.637 -0.2898  0.3161 -0.2016
 1528SOL    HW2 6110   1.456   2.753   2.669  1.4401 -3.4534  0.3447
 1528SOL    HW3 6111   1.378   2.726   2.542  1.3705 -0.5236 -0.2743
 1528SOL    MW4 6112   1.386   2.720   2.628  0.1575 -0.2921 -0.1391
 1529SOL     OW 6113   1.608   2.824   2.725 -0.1761  0.0100 -0.1828
 1529SOL    HW2 6114   1.619   2.842   2.818 -0.3289 -0.4673 -0.0690
 1529SOL    HW3 6115   1.682   2.766   2.703 -1.3283 -1.6118  0.1358
 1529SOL    MW4 6116   1.619   2.819   2.734 -0.3483 -0.2670 -0.1258
 1530SOL     OW 6117   1.581   3.075   2.606 -0.4145 -0.2909 -0.9832
 1530SOL    HW2 6118   1.645   3.132   2.649 -0.3275 -1.4176  0.4096
 1530SOL    HW3 6119   1.586   2.993   2.655 -2.7574 -0.4706 -1.0015
 1530SOL    MW4 6120   1.590   3.072   2.618 -0.7121 -0.4633 -0.8018
 1531SOL     OW 6121   1.375   3.180   2.768 -0.0934  0.2361 -0.3788
 1531SOL    HW2 6122   1.451   3.145   2.719 -0.3676 -0.8723 -0.0276
 1531SOL    HW3 6123   1.306   3.116   2.752 -1.0012  1.3073 -0.7844
 1531SOL    MW4 6124   1.376   3.167   2.759 -0.2493  0.2312 -0.3860
 1532SOL     OW 6125   1.362   3.464   2.674 -0.0593 -0.7016  0.5264
 1532SOL    HW2 6126   1.357   3.369   2.680 -1.1150 -0.8360 -1.7173
 1532SOL    HW3 6127   1.275   3.494   2.702 -0.8954 -0.6400 -2.0233
 1532SOL    MW4 6128   1.350   3.455   2.678 -0.3089 -0.7112 -0.1060
 1533SOL     OW 6129   1.578   3.637   2.747  0.2213  0.2605 -0.0404
 1533SOL    HW2 6130   1.659   3.601   2.712  0.9102  1.2107  0.5634
 1533SOL    HW3 6131   1.510   3.576   2.718  1.1878 -0.7078 -0.2821
 1533SOL    MW4 6132   1.580   3.624   2.738  0.4397  0.2581  0.0074
 1534SOL     OW 6133   1.545   3.876   2.636 -0.2045  0.1035  0.0358
 1534SOL    HW2 6134   1.463   3.891   2.682 -0.1812  1.0050 -0.1904
 1534SOL    HW3 6135   1.573   3.789   2.662 -1.0325 -0.0462  0.4229
 1534SOL    MW4 6136   1.538   3.867   2.645 -0.3107  0.2027  0.0570
 1535SOL     OW 6137   1.309   3.978   2.756  0.0187  0.2368  0.3026
 1535SOL    HW2 6138   1.337   3.978   2.847 -0.9728  0.2000  0.6059
 1535SOL    HW3 6139   1.339   4.062   2.721 -0.5109  0.6952  0.9425
 1535SOL    MW4 6140   1.317   3.989   2.763 -0.1820  0.2924  0.4271
 1536SOL     OW 6141   1.360   4.243   2.631 -0.4747  0.7762 -0.0653
 1536SOL    HW2 6142   1.291   4.297   2.667 -1.7357 -0.1204 -1.0729
 1536SOL    HW3 6143   1.371   4.275   2.541 -1.3921 -0.7674 -0.7433
 1536SOL    MW4 6144   1.352   4.254   2.624 -0.7621  0.4543 -0.2877
 1537SOL     OW 6145   1.588   4.359   2.723 -0.0407 -0.1248 -0.0887
 1537SOL    HW2 6146   1.598   4.371   2.817  0.1598  1.2458 -0.2881
 1537SOL    HW3 6147   1.499   4.324   2.713 -0.1754  0.0263  0.5711
 1537SOL    MW4 6148   1.578   4.356   2.734 -0.0320  0.0760 -0.0280
 1538SOL     OW 6149   2.015   4.639   2.617  0.1312  0.1938 -0.0858
 1538SOL    HW2 6150   2.089   4.693   2.643 -0.2488  0.8617 -0.3918
 1538SOL    HW3 6151   2.022   4.632   2.521  0.9002 -1.3463  0.0668
 1538SOL    MW4 6152   2.025   4.645   2.607  0.1825  0.0787 -0.1060
 1539SOL     OW 6153   1.818   0.081   2.773 -0.2284 -0.1083 -0.1686
 1539SOL    HW2 6154   1.891   0.042   2.726 -0.0840  0.1950 -0.1960
 1539SOL    HW3 6155   1.740   0.042   2.732 -0.1294  0.7037 -1.1586
 1539SOL    MW4 6156   1.817   0.071   2.761 -0.1963  0.0389 -0.3029
 1540SOL     OW 6157   1.806   0.345   2.651 -0.8877  0.1377 -0.6998
 1540SOL    HW2 6158   1.888   0.384   2.681 -0.7400  0.7406 -1.8711
 1540SOL    HW3 6159   1.800   0.262   2.699  0.1224  0.3550 -0.1862
 1540SOL    MW4 6160   1.816   0.339   2.661 -0.7349  0.2459 -0.7865
 1541SOL     OW 6161   2.034   0.468   2.757 -0.2883 -0.5652 -0.1685
 1541SOL    HW2 6162   2.108   0.422   2.716  0.4839  1.1928 -0.8150
 1541SOL    HW3 6163   2.030   0.552   2.711 -1.4819  0.1396  1.1867
 1541SOL    MW4 6164   2.043   0.473   2.746 -0.3439 -0.2403 -0.0750
 1542SOL     OW 6165   2.032   0.735   2.629  0.1316 -0.0026  0.6699
 1542SOL    HW2 6166   1.956   0.791   2.649 -0.6376 -0.6131 -0.4914
 1542SOL    HW3 6167   2.038   0.736   2.533  1.4628 -0.1407  0.7413
 1542SOL    MW4 6168   2.022   0.743   2.619  0.2057 -0.1014  0.5261
 1543SOL     OW 6169   1.808   0.878   2.746 -0.0403  0.1751  0.0175
 1543SOL    HW2 6170   1.794   0.967   2.712  1.9564  0.4059 -0.2235
 1543SOL    HW3 6171   1.728   0.831   2.722 -0.7646  1.6838 -0.5846
 1543SOL    MW4 6172   1.795   0.884   2.738  0.1276  0.4046 -0.0937
 1544SOL     OW 6173   1.781   1.114   2.621  0.5047  0.2258 -0.4017
 1544SOL    HW2 6174   1.854   1.171   2.644 -1.0344  1.8294  0.6429
 1544SOL    HW3 6175   1.788   1.104   2.526  1.8341  0.7132 -0.3676
 1544SOL    MW4 6176   1.791   1.121   2.611  0.4770  0.5017 -0.2594
 1545SOL     OW 6177   2.008   1.264   2.703  0.2502 -0.0257  0.0524
 1545SOL    HW2 6178   2.027   1.268   2.796  1.0354 -0.7783 -0.0557
 1545SOL    HW3 6179   2.090   1.233   2.664 -0.3767 -0.6713 -0.7710
 1545SOL    MW4 6180   2.022   1.260   2.710  0.2711 -0.2102 -0.0705
 1546SOL     OW 6181   2.042   1.509   2.589  0.0224  0.7116  0.2088
 1546SOL    HW2 6182   1.981   1.576   2.621 -0.7861 -0.5197  1.2515
 1546SOL    HW3 6183   2.032   1.435   2.649  1.6432  0.0104 -0.3361
 1546SOL    MW4 6184   2.033   1.508   2.601  0.1296  0.4566  0.2745
 1547SOL     OW 6185   1.826   1.670   2.701  0.5212  0.3870  0.0637
 1547SOL    HW2 6186   1.838   1.667   2.796 -0.5294  1.7577  0.2671
 1547SOL    HW3 6187   1.751   1.612   2.685  0.8043  0.0248  0.0532
 1547SOL    MW4 6188   1.818   1.662   2.711  0.4199  0.5201  0.0891
 1548SOL     OW 6189   1.787   1.934   2.659  0.4124 -0.0696  0.5767
 1548SOL    HW2 6190   1.873   1.967   2.685  1.3572  0.0835 -2.5615
 1548SOL    HW3 6191   1.796   1.839   2.661  0.8798 -0.0522 -0.3761
 1548SOL    MW4 6192   1.799   1.926   2.662  0.5987 -0.0471  0.0369
 1549SOL     OW 6193   2.032   2.008   2.762 -0.1586 -0.3590 -0.1927
 1549SOL    HW2 6194   2.026   2.009   2.857 -1.1416  0.0013 -0.2598
 1549SOL    HW3 6195   2.033   2.101   2.737 -0.1189 -0.4533 -0.5481
 1549SOL    MW4 6196   2.032   2.021   2.771 -0.2831 -0.3239 -0.2484
 1550SOL     OW 6197   2.049   2.290   2.669  0.2783 -0.0945  0.0556
 1550SOL    HW2 6198   2.120   2.342   2.706 -0.5265  0.6586  0.5740
 1550SOL    HW3 6199   2.048   2.313   2.576  0.1948  0.5133  0.2019
 1550SOL    MW4 6200   2.058   2.300   2.661  0.1611  0.0850  0.1433
 1551SOL     OW 6201   1.819   2.408   2.752  0.0256 -0.1085 -0.2257
 1551SOL    HW2 6202   1.817   2.410   2.848  0.3410 -1.3093 -0.1830
 1551SOL    HW3 6203   1.901   2.363   2.731  0.0014  0.2324 -1.0622
 1551SOL    MW4 6204   1.830   2.402   2.762  0.0640 -0.2219 -0.3305
 1552SOL     OW 6205   1.833   2.682   2.649  0.5660 -0.2935 -0.1830
 1552SOL    HW2 6206   1.829   2.588   2.667  0.6660 -0.3127 -0.2581
 1552SOL    HW3 6207   1.820   2.689   2.554 -2.3904 -0.0102  0.2222
 1552SOL    MW4 6208   1.831   2.670   2.639  0.1892 -0.2586 -0.1394
 1553SOL     OW 6209   2.031   2.856   2.755  0.0585  0.1512  0.2781
 1553SOL    HW2 6210   2.108   2.813   2.718 -0.5689  1.2074 -2.3878
 1553SOL    HW3 6211   1.957   2.804   2.724 -0.3656 -0.1091  1.7321
 1553SOL    MW4 6212   2.032   2.844   2.746 -0.0802  0.2562  0.1182
 1554SOL     OW 6213   2.001   3.106   2.653 -0.1376 -0.5042  0.4433
 1554SOL    HW2 6214   2.003   3.015   2.685 -2.8195 -0.7557  0.0295
 1554SOL    HW3 6215   2.002   3.097   2.557 -2.2319 -0.2311  0.3604
 1554SOL    MW4 6216   2.001   3.093   2.644 -0.7677 -0.5014  0.3778
 1555SOL     OW 6217   1.758   3.237   2.730  0.1582 -0.6306  0.1681
 1555SOL    HW2 6218   1.761   3.330   2.708 -0.3578 -0.4960  0.6409
 1555SOL    HW3 6219   1.834   3.199   2.687 -0.6940 -0.3326 -1.6214
 1555SOL    MW4 6220   1.768   3.245   2.722 -0.0224 -0.5736 -0.0056
 1556SOL     OW 6221   1.788   3.499   2.638 -0.3034 -0.0529  0.2517
 1556SOL    HW2 6222   1.869   3.543   2.661 -1.0520  1.7809 -0.5223
 1556SOL    HW3 6223   1.780   3.511   2.543 -2.2338  1.1512  0.5243
 1556SOL    MW4 6224   1.797   3.506   2.628 -0.6569  0.3479  0.1856
 1557SOL     OW 6225   2.027   3.594   2.734  0.5428 -0.2985  0.3107
 1557SOL    HW2 6226   2.037   3.595   2.829  2.3351  0.4380  0.1421
 1557SOL    HW3 6227   2.112   3.564   2.701  0.1804  0.1537 -1.0759
 1557SOL    MW4 6228   2.039   3.590   2.742  0.7315 -0.1416  0.1055
 1558SOL     OW 6229   2.043   3.864   2.633  0.1817  0.2676 -0.0189
 1558SOL    HW2 6230   1.964   3.903   2.672  0.0519 -0.4991  0.4935
 1558SOL    HW3 6231   2.039   3.772   2.658  0.2647 -0.1823 -1.5658
 1558SOL    MW4 6232   2.032   3.857   2.641  0.1756  0.1071 -0.1554
 1559SOL     OW 6233   1.801   3.988   2.729  0.6056 -0.0622  0.1258
 1559SOL    HW2 6234   1.796   4.073   2.685  0.6064  0.3394  0.8858
 1559SOL    HW3 6235   1.729   3.937   2.692  1.7056 -0.3709 -1.6546
 1559SOL    MW4 6236   1.791   3.993   2.719  0.7508 -0.0499 -0.0088
 1560SOL     OW 6237   1.807   4.257   2.608  0.4603  0.1174  0.3264
 1560SOL    HW2 6238   1.728   4.291   2.651  1.0811  1.2375  0.6017
 1560SOL    HW3 6239   1.789   4.266   2.514 -0.4089 -1.2026  0.3519
 1560SOL    MW4 6240   1.794   4.263   2.601  0.4275  0.0910  0.3661
 1561SOL     OW 6241   2.041   4.373   2.715 -0.1863  0.4312 -0.3170
 1561SOL    HW2 6242   1.955   4.342   2.688  0.5992 -0.0628 -2.3644
 1561SOL    HW3 6243   2.036   4.468   2.708 -0.8624  0.4690  0.5621
 1561SOL    MW4 6244   2.029   4.381   2.711 -0.1719  0.3710 -0.4712
 1562SOL     OW 6245   2.463   4.617   2.588  0.1910 -0.0184 -0.1430
 1562SOL    HW2 6246   2.527   4.667   2.639 -1.1119  0.1985  1.3071
 1562SOL    HW3 6247   2.495   4.623   2.498  1.9290  0.5184  0.4741
 1562SOL    MW4 6248   2.476   4.625   2.583  0.2484  0.0811  0.1297
 1563SOL     OW 6249   2.247   0.071   2.717  0.1979  0.4972  0.5626
 1563SOL    HW2 6250   2.292   0.064   2.801 -2.3510 -0.4492  1.8844
 1563SOL    HW3 6251   2.302   0.019   2.657  0.4437 -1.3757  2.3244
 1563SOL    MW4 6252   2.260   0.063   2.720 -0.1060  0.1252  0.9695
 1564SOL     OW 6253   2.253   0.341   2.650 -0.1090 -0.0339 -0.0295
 1564SOL    HW2 6254   2.272   0.253   2.682 -1.0270 -0.5765 -0.9572
 1564SOL    HW3 6255   2.245   0.332   2.555  1.2211  1.3165 -0.2972
 1564SOL    MW4 6256   2.254   0.328   2.642 -0.0546  0.0727 -0.1872
 1565SOL     OW 6257   2.483   0.479   2.753  0.0424 -0.3761 -0.0190
 1565SOL    HW2 6258   2.485   0.569   2.721  1.1345 -0.5997 -0.6310
 1565SOL    HW3 6259   2.404   0.441   2.715  0.0948  0.0499 -0.5620
 1565SOL    MW4 6260   2.473   0.486   2.744  0.1934 -0.3494 -0.1714
 1566SOL     OW 6261   2.471   0.752   2.662 -0.3106  0.5986 -0.0526
 1566SOL    HW2 6262   2.389   0.791   2.692  1.0224  3.2321  0.2612
 1566SOL    HW3 6263   2.460   0.745   2.567 -0.8251  1.1134 -0.0321
 1566SOL    MW4 6264   2.459   0.756   2.653 -0.2026  1.0139 -0.0085
 1567SOL     OW 6265   2.249   0.910   2.689  0.7344 -0.6830 -0.8125
 1567SOL    HW2 6266   2.237   0.906   2.784  1.2025 -1.5472 -0.7883
 1567SOL    HW3 6267   2.177   0.857   2.654  0.0360  0.3586 -0.9859
 1567SOL    MW4 6268   2.238   0.902   2.697  0.7040 -0.6596 -0.8322
 1568SOL     OW 6269   2.237   1.172   2.600  0.1942  0.0656 -0.0200
 1568SOL    HW2 6270   2.254   1.089   2.643  0.4378  0.6215  0.9647
 1568SOL    HW3 6271   2.213   1.148   2.510  0.0996 -1.0686  0.3026
 1568SOL    MW4 6272   2.236   1.158   2.594  0.2139 -0.0107  0.1525
 1569SOL     OW 6273   2.477   1.272   2.674 -0.4668  0.4832 -0.3276
 1569SOL    HW2 6274   2.546   1.205   2.676  0.0698  1.0636  1.4194
 1569SOL    HW3 6275   2.404   1.229   2.630  1.0023 -0.1296 -2.2695
 1569SOL    MW4 6276   2.477   1.257   2.668 -0.2021  0.4789 -0.3533
 1570SOL     OW 6277   2.495   1.550   2.625 -0.0749 -0.5298 -0.2488
 1570SOL    HW2 6278   2.405   1.564   2.651  0.3957  1.0472  0.5404
 1570SOL    HW3 6279   2.512   1.458   2.646 -1.2779 -0.6506  0.2175
 1570SOL    MW4 6280   2.486   1.539   2.631 -0.1715 -0.3377 -0.0832
 1571SOL     OW 6281   2.269   1.640   2.721 -0.0113 -0.3867  0.6005
 1571SOL    HW2 6282   2.275   1.731   2.690  0.9261 -0.1600  1.4059
 1571SOL    HW3 6283   2.188   1.607   2.683 -0.8578  1.0946  1.0910
 1571SOL    MW4 6284   2.259   1.648   2.712  0.0007 -0.1613  0.7715
 1572SOL     OW 6285   2.262   1.904   2.645  0.3086  0.0973 -0.7210
 1572SOL    HW2 6286   2.184   1.934   2.692 -0.9905 -2.8154 -0.8676
 1572SOL    HW3 6287   2.246   1.931   2.554  0.2636  0.9726 -0.4592
 1572SOL    MW4 6288   2.249   1.911   2.639  0.1313 -0.1715 -0.7058
 1573SOL     OW 6289   2.476   2.011   2.785 -0.4096  0.4010  0.0193
 1573SOL    HW2 6290   2.464   2.106   2.776 -0.7853  0.3707  0.1879
 1573SOL    HW3 6291   2.406   1.974   2.732 -1.1182  0.2152  1.0778
 1573SOL    MW4 6292   2.465   2.019   2.777 -0.5527  0.3725  0.1812
 1574SOL     OW 6293   2.466   2.271   2.685 -0.0541  0.1214  0.3523
 1574SOL    HW2 6294   2.553   2.303   2.709  0.9244 -2.4009  0.3461
 1574SOL    HW3 6295   2.465   2.276   2.589 -0.3135  1.1083  0.4010
 1574SOL    MW4 6296   2.477   2.276   2.676  0.0408 -0.0812  0.3579
 1575SOL     OW 6297   2.273   2.446   2.771 -0.4090 -0.1374  0.3821
 1575SOL    HW2 6298   2.278   2.438   2.866 -3.1164 -1.5228  0.4633
 1575SOL    HW3 6299   2.343   2.390   2.738  0.3652  0.1331  1.5264
 1575SOL    MW4 6300   2.283   2.438   2.779 -0.6641 -0.2845  0.5438
 1576SOL     OW 6301   2.255   2.731   2.668 -0.0243  0.0673 -0.3811
 1576SOL    HW2 6302   2.331   2.768   2.712 -1.5565  1.7545  0.8898
 1576SOL    HW3 6303   2.261   2.637   2.685  1.1485  0.3179  0.6554
 1576SOL    MW4 6304   2.266   2.723   2.676 -0.0717  0.3230 -0.0767
 1577SOL     OW 6305   2.470   2.851   2.803 -0.0090  0.2770  0.0960
 1577SOL    HW2 6306   2.547   2.808   2.765 -0.2278 -0.0470  0.0161
 1577SOL    HW3 6307   2.449   2.921   2.742 -1.0126 -0.9134 -0.9678
 1577SOL    MW4 6308   2.477   2.854   2.790 -0.1703  0.0772 -0.0549
 1578SOL     OW 6309   2.449   3.078   2.634  0.1107 -0.0551 -0.2810
 1578SOL    HW2 6310   2.378   3.131   2.669  0.1978 -0.4468  0.5053
 1578SOL    HW3 6311   2.444   3.089   2.539 -1.4424 -0.6592 -0.2695
 1578SOL    MW4 6312   2.439   3.087   2.626 -0.0827 -0.1865 -0.1757
 1579SOL     OW 6313   2.230   3.234   2.738  0.0082  0.0705 -0.0585
 1579SOL    HW2 6314   2.218   3.249   2.832 -0.1920 -0.7077  0.0421
 1579SOL    HW3 6315   2.153   3.184   2.712  0.1758  0.0960 -0.5919
 1579SOL    MW4 6316   2.219   3.229   2.747  0.0039 -0.0288 -0.1156
 1580SOL     OW 6317   2.269   3.494   2.651  0.1373  0.1199 -0.1803
 1580SOL    HW2 6318   2.355   3.518   2.686  0.5367 -0.2228 -0.9115
 1580SOL    HW3 6319   2.263   3.400   2.666 -0.6427  0.3443  0.9957
 1580SOL    MW4 6320   2.280   3.485   2.658  0.0871  0.1043 -0.1216
 1581SOL     OW 6321   2.495   3.590   2.774  0.1593  0.1507 -0.0374
 1581SOL    HW2 6322   2.477   3.570   2.866  0.0860  0.4530  0.0155
 1581SOL    HW3 6323   2.501   3.685   2.772 -0.1968  0.1652 -0.4093
 1581SOL    MW4 6324   2.493   3.600   2.786  0.1027  0.1925 -0.0795
 1582SOL     OW 6325   2.488   3.862   2.708  0.6600 -0.7448  0.5742
 1582SOL    HW2 6326   2.565   3.912   2.734 -0.8584  1.7437  0.3614
 1582SOL    HW3 6327   2.414   3.913   2.740 -0.9259 -3.0624  0.6972
 1582SOL    MW4 6328   2.488   3.875   2.716  0.2504 -0.7222  0.5624
 1583SOL     OW 6329   2.243   4.000   2.784  0.0171  0.1605  0.5824
 1583SOL    HW2 6330   2.245   3.967   2.874 -0.0689  0.2717  0.6250
 1583SOL    HW3 6331   2.175   3.947   2.741 -0.1030  0.2665  0.6437
 1583SOL    MW4 6332   2.234   3.988   2.790 -0.0101  0.1892  0.5961
 1584SOL     OW 6333   2.286   4.251   2.653  0.0734 -0.1991  0.0587
 1584SOL    HW2 6334   2.278   4.173   2.709  0.7193 -0.4367 -0.1772
 1584SOL    HW3 6335   2.209   4.304   2.675 -0.1224 -0.6848  0.5617
 1584SOL    MW4 6336   2.275   4.248   2.663  0.1328 -0.2945  0.0939
 1585SOL     OW 6337   2.521   4.369   2.697 -0.0544 -0.1277 -0.1551
 1585SOL    HW2 6338   2.443   4.313   2.690  0.3575 -0.5590 -1.6599
 1585SOL    HW3 6339   2.501   4.445   2.643  0.3226  0.0497 -0.0487
 1585SOL    MW4 6340   2.508   4.372   2.689  0.0497 -0.1612 -0.3396
 1586SOL     OW 6341   2.906   4.641   2.638  0.4439 -0.2943  0.1000
 1586SOL    HW2 6342   2.983   4.689   2.670  0.5446 -0.0023 -0.5655
 1586SOL    HW3 6343   2.918   4.638   2.543 -1.1332  1.0991 -0.1701
 1586SOL    MW4 6344   2.918   4.647   2.629  0.2491 -0.0720 -0.0234
 1587SOL     OW 6345   2.668   0.050   2.743 -0.1378  0.0559 -0.0192
 1587SOL    HW2 6346   2.693   0.054   2.836  0.2346 -2.8609  0.0525
 1587SOL    HW3 6347   2.749   0.025   2.698 -1.0315 -1.6227 -0.7349
 1587SOL    MW4 6348   2.682   0.047   2.749 -0.2066 -0.5504 -0.1041
 1588SOL     OW 6349   2.690   0.311   2.642 -0.3148  0.2251  0.3334
 1588SOL    HW2 6350   2.670   0.228   2.685  0.1698  0.2342  0.5750
 1588SOL    HW3 6351   2.620   0.370   2.671 -0.2697  0.0928  0.7158
 1588SOL    MW4 6352   2.678   0.308   2.652 -0.2449  0.2088  0.4157
 1589SOL     OW 6353   2.926   0.441   2.743  0.2146  0.0742 -0.2574
 1589SOL    HW2 6354   2.920   0.536   2.727  0.3811  0.0233 -0.6479
 1589SOL    HW3 6355   2.843   0.406   2.709  0.2253  0.0617 -0.2705
 1589SOL    MW4 6356   2.914   0.449   2.736  0.2380  0.0658 -0.3107
 1590SOL     OW 6357   2.934   0.706   2.674  0.1603 -0.3252  0.3625
 1590SOL    HW2 6358   3.014   0.745   2.709 -0.5813  1.3918  0.1932
 1590SOL    HW3 6359   2.863   0.752   2.719 -0.7523 -1.2440 -0.1086
 1590SOL    MW4 6360   2.935   0.717   2.685 -0.0580 -0.2199  0.2780
 1591SOL     OW 6361   2.720   0.847   2.755  0.1261  0.1299  0.1246
 1591SOL    HW2 6362   2.708   0.848   2.850  1.1484 -0.4881  0.2605
 1591SOL    HW3 6363   2.636   0.815   2.721  0.2145 -0.9500  0.8995
 1591SOL    MW4 6364   2.707   0.843   2.763  0.2727 -0.0941  0.2448
 1592SOL     OW 6365   2.706   1.106   2.653  0.0055  0.1127  0.0748
 1592SOL    HW2 6366   2.785   1.153   2.680  0.7092 -0.9785 -0.0034
 1592SOL    HW3 6367   2.714   1.020   2.696 -1.5906  0.3114  0.8029
 1592SOL    MW4 6368   2.718   1.101   2.662 -0.1123 -0.0050  0.1606
 1593SOL     OW 6369   2.942   1.258   2.729 -0.0497  0.6853 -0.4227
 1593SOL    HW2 6370   2.945   1.267   2.824 -0.6635  0.6566 -0.3952
 1593SOL    HW3 6371   3.031   1.235   2.703 -0.6122 -2.9351  0.5245
 1593SOL    MW4 6372   2.954   1.256   2.738 -0.2049  0.2038 -0.2941
 1594SOL     OW 6373   2.943   1.489   2.603  0.1705 -0.2709  0.0661
 1594SOL    HW2 6374   2.869   1.544   2.629 -0.1880 -0.7049 -0.0199
 1594SOL    HW3 6375   2.930   1.408   2.652 -0.4997 -1.0924 -1.4334
 1594SOL    MW4 6376   2.932   1.486   2.613  0.0348 -0.4365 -0.1431
 1595SOL     OW 6377   2.734   1.671   2.698  0.3210 -0.3139  0.2948
 1595SOL    HW2 6378   2.716   1.665   2.791 -0.0940  0.8747  0.2912
 1595SOL    HW3 6379   2.653   1.643   2.655  0.2635 -0.1237  0.2819
 1595SOL    MW4 6380   2.721   1.666   2.704  0.2587 -0.1320  0.2926
 1596SOL     OW 6381   2.697   1.939   2.636 -0.0414  0.4185  0.3728
 1596SOL    HW2 6382   2.707   1.848   2.661  1.5715  0.1524 -1.1713
 1596SOL    HW3 6383   2.623   1.970   2.688 -0.0256 -1.5058  1.5816
 1596SOL    MW4 6384   2.688   1.931   2.646  0.1735  0.1295  0.3286
 1597SOL     OW 6385   2.928   2.041   2.721 -0.3363 -0.1340  0.2265
 1597SOL    HW2 6386   2.933   2.123   2.671  0.6366  0.0283  0.5742
 1597SOL    HW3 6387   2.843   2.004   2.698 -0.5282  0.6782 -0.4000
 1597SOL    MW4 6388   2.918   2.047   2.711 -0.2332 -0.0054  0.1897
 1598SOL     OW 6389   2.937   2.297   2.637  0.5779 -0.2809 -0.1254
 1598SOL    HW2 6390   3.014   2.327   2.686  0.1921  2.3260 -1.0626
 1598SOL    HW3 6391   2.863   2.343   2.676  0.1004  0.8397 -2.2323
 1598SOL    MW4 6392   2.938   2.307   2.648  0.4640  0.2109 -0.5270
 1599SOL     OW 6393   2.702   2.412   2.750 -0.4096 -0.6956 -0.0908
 1599SOL    HW2 6394   2.699   2.433   2.843 -0.1979 -0.8160 -0.0558
 1599SOL    HW3 6395   2.704   2.498   2.707 -1.3869 -0.6389 -0.0201
 1599SOL    MW4 6396   2.702   2.426   2.757 -0.5106 -0.7040 -0.0768
 1600SOL     OW 6397   2.681   2.728   2.670 -0.1731 -0.4405  0.0545
 1600SOL    HW2 6398   2.770   2.763   2.679 -0.3211  0.1236 -0.6142
 1600SOL    HW3 6399   2.670   2.715   2.575 -0.5134 -1.2824  0.2042
 1600SOL    MW4 6400   2.691   2.731   2.658 -0.2375 -0.4771 -0.0140
 1601SOL     OW 6401   2.959   2.785   2.731 -0.4862 -0.5059  0.1994
 1601SOL    HW2 6402   2.942   2.766   2.823  0.0124 -0.4065  0.3128
 1601SOL    HW3 6403   2.963   2.880   2.726 -1.0211 -0.4937 -0.0176
 1601SOL    MW4 6404   2.957   2.795   2.742 -0.4910 -0.4912  0.1857
 1602SOL     OW 6405   2.942   3.040   2.652 -0.1706  0.8847 -0.6770
 1602SOL    HW2 6406   2.855   3.075   2.670 -0.6221 -0.4936 -0.1248
 1602SOL    HW3 6407   2.949   3.042   2.556 -0.3693  2.0365 -0.6694
 1602SOL    MW4 6408   2.932   3.045   2.642 -0.2564  0.8548 -0.6032
 1603SOL     OW 6409   2.710   3.183   2.709 -0.3398 -0.3964 -0.0625
 1603SOL    HW2 6410   2.718   3.278   2.699  0.0393 -0.5210 -0.9201
 1603SOL    HW3 6411   2.629   3.161   2.662 -0.0175 -0.6072 -0.5127
 1603SOL    MW4 6412   2.700   3.193   2.701 -0.2472 -0.4406 -0.2351
 1604SOL     OW 6413   2.733   3.450   2.664  0.0069 -0.6302 -0.5833
 1604SOL    HW2 6414   2.663   3.504   2.701  1.4958  0.6774  0.3844
 1604SOL    HW3 6415   2.720   3.456   2.569  0.9959  2.6441 -0.5549
 1604SOL    MW4 6416   2.722   3.458   2.656  0.3338 -0.0257 -0.4519
 1605SOL     OW 6417   2.974   3.579   2.717  0.1576  0.0793 -0.0149
 1605SOL    HW2 6418   2.973   3.594   2.812  0.5162 -0.6148  0.1044
 1605SOL    HW3 6419   2.892   3.535   2.699  0.3868 -0.3827  0.0740
 1605SOL    MW4 6420   2.963   3.576   2.727  0.2351 -0.0733  0.0125
 1606SOL     OW 6421   2.937   3.837   2.623 -0.1416  0.2896  0.4760
 1606SOL    HW2 6422   3.011   3.886   2.658 -0.1748  0.5672  0.1603
 1606SOL    HW3 6423   2.955   3.746   2.646  1.1584  0.1253 -1.1001
 1606SOL    MW4 6424   2.949   3.831   2.631  0.0255  0.3045  0.2264
 1607SOL     OW 6425   2.724   4.000   2.725  0.0878 -0.2897  0.1438
 1607SOL    HW2 6426   2.721   4.092   2.700  0.7375 -0.4120 -0.4165
 1607SOL    HW3 6427   2.790   3.962   2.667  1.1274 -0.7268  1.5943
 1607SOL    MW4 6428   2.732   4.007   2.714  0.3107 -0.3635  0.2612
 1608SOL     OW 6429   2.760   4.264   2.622 -0.3106 -0.0876 -0.1172
 1608SOL    HW2 6430   2.830   4.301   2.676 -0.3694  1.9716 -1.4099
 1608SOL    HW3 6431   2.681   4.308   2.651 -0.4333  0.5963 -1.4504
 1608SOL    MW4 6432   2.759   4.275   2.633 -0.3345  0.2743 -0.4636
 1609SOL     OW 6433   2.984   4.377   2.764 -0.1798  0.4814 -0.3568
 1609SOL    HW2 6434   2.958   4.377   2.856 -0.7318 -0.9951 -0.4831
 1609SOL    HW3 6435   2.975   4.468   2.736  0.2008  0.9838  1.0989
 1609SOL    MW4 6436   2.979   4.389   2.772 -0.2024  0.3529 -0.1814
 1610SOL     OW 6437   3.389   4.653   2.628  0.0601 -0.7226 -0.7304
 1610SOL    HW2 6438   3.376   4.559   2.645 -0.0351 -0.3705  1.3069
 1610SOL    HW3 6439   3.306   4.693   2.655  0.9227  0.1832  0.6272
 1610SOL    MW4 6440   3.376   4.646   2.634  0.1614 -0.5567 -0.2825
 1611SOL     OW 6441   3.143   0.113   2.724 -0.5298 -0.6176  0.7973
 1611SOL    HW2 6442   3.144   0.107   2.819  3.3215 -0.8831  0.8039
 1611SOL    HW3 6443   3.179   0.199   2.704  1.6193 -1.7418 -0.4180
 1611SOL    MW4 6444   3.148   0.123   2.734  0.2619 -0.8009  0.6378
 1612SOL     OW 6445   3.199   0.374   2.628 -0.4239  0.4248  0.4661
 1612SOL    HW2 6446   3.113   0.402   2.659 -0.0577  0.2423  1.6625
 1612SOL    HW3 6447   3.186   0.360   2.534 -1.6201  0.7017  0.5723
 1612SOL    MW4 6448   3.186   0.376   2.620 -0.5334  0.4372  0.6379
 1613SOL     OW 6449   3.379   0.545   2.754  0.0971 -0.4203 -0.3264
 1613SOL    HW2 6450   3.397   0.626   2.707 -0.7794 -0.1878 -0.2647
 1613SOL    HW3 6451   3.317   0.498   2.699 -0.6346 -0.3214  0.3982
 1613SOL    MW4 6452   3.373   0.549   2.741 -0.1151 -0.3766 -0.2227
 1614SOL     OW 6453   3.387   0.799   2.625 -0.5214 -0.0968 -0.0739
 1614SOL    HW2 6454   3.467   0.839   2.660 -0.5706 -0.2514  0.2207
 1614SOL    HW3 6455   3.411   0.771   2.537  0.0321 -0.9566  0.3295
 1614SOL    MW4 6456   3.401   0.800   2.618 -0.4549 -0.2307  0.0182
 1615SOL     OW 6457   3.149   0.886   2.756  0.2207 -0.1118  0.4446
 1615SOL    HW2 6458   3.158   0.873   2.850 -0.7082  0.5920  0.6422
 1615SOL    HW3 6459   3.231   0.854   2.719  0.3871 -0.8747  1.4449
 1615SOL    MW4 6460   3.161   0.880   2.764  0.1201 -0.1196  0.6027
 1616SOL     OW 6461   3.176   1.155   2.640  0.4768 -0.2617 -0.1291
 1616SOL    HW2 6462   3.156   1.074   2.688  0.3042  0.1579  0.5116
 1616SOL    HW3 6463   3.158   1.133   2.549 -0.6795 -0.6084  0.1675
 1616SOL    MW4 6464   3.171   1.141   2.635  0.3014 -0.2521 -0.0054
 1617SOL     OW 6465   3.393   1.321   2.717  0.2390  0.1572 -0.6776
 1617SOL    HW2 6466   3.372   1.314   2.810 -0.3738  0.6917 -0.7670
 1617SOL    HW3 6467   3.323   1.272   2.673 -0.1725  0.9466 -0.9166
 1617SOL    MW4 6468   3.381   1.313   2.723  0.1039  0.3319 -0.7209
 1618SOL     OW 6469   3.363   1.581   2.643  0.4708  0.0008 -0.2298
 1618SOL    HW2 6470   3.277   1.596   2.682 -0.4223 -0.7831 -1.8619
 1618SOL    HW3 6471   3.386   1.491   2.670  0.3808 -0.1150 -0.5439
 1618SOL    MW4 6472   3.355   1.571   2.652  0.3411 -0.1179 -0.4866
 1619SOL     OW 6473   3.118   1.641   2.753 -0.3282 -0.0955 -0.2600
 1619SOL    HW2 6474   3.108   1.718   2.697 -1.0227 -0.1826 -0.2607
 1619SOL    HW3 6475   3.082   1.569   2.702  0.0833 -0.3795 -0.1552
 1619SOL    MW4 6476   3.112   1.642   2.739 -0.3655 -0.1444 -0.2463
 1620SOL     OW 6477   3.117   1.877   2.604  0.4140 -0.3677 -0.1804
 1620SOL    HW2 6478   3.194   1.915   2.647  0.3489 -1.1619  0.6554
 1620SOL    HW3 6479   3.042   1.917   2.648  0.3475 -1.0352  0.3133
 1620SOL    MW4 6480   3.118   1.887   2.615  0.3967 -0.5606 -0.0050
 1621SOL     OW 6481   3.343   2.015   2.721 -0.3020  0.5096  0.5717
 1621SOL    HW2 6482   3.327   2.025   2.815 -1.1483 -0.5548  0.5525
 1621SOL    HW3 6483   3.348   2.105   2.688 -0.9585  0.8912  1.4767
 1621SOL    MW4 6484   3.341   2.029   2.729 -0.5003  0.4195  0.6885
 1622SOL     OW 6485   3.382   2.297   2.691 -0.0325  0.1572  0.0662
 1622SOL    HW2 6486   3.458   2.346   2.722  1.2638 -1.2619 -0.8381
 1622SOL    HW3 6487   3.390   2.298   2.595 -1.3195  0.2301 -0.0603
 1622SOL    MW4 6488   3.393   2.304   2.682 -0.0312 -0.0204 -0.0698
 1623SOL     OW 6489   3.147   2.408   2.761 -0.5583 -0.1977 -0.1154
 1623SOL    HW2 6490   3.151   2.492   2.716 -0.2928  0.2313  0.6958
 1623SOL    HW3 6491   3.231   2.365   2.740 -1.0926 -0.6766 -1.3132
 1623SOL    MW4 6492   3.159   2.413   2.752 -0.5938 -0.2043 -0.1664
 1624SOL     OW 6493   3.177   2.650   2.639 -0.2507  0.3308  0.0802
 1624SOL    HW2 6494   3.253   2.691   2.679  0.7477 -1.2013 -0.1845
 1624SOL    HW3 6495   3.103   2.705   2.665  0.8897  1.5942  0.6955
 1624SOL    MW4 6496   3.177   2.662   2.648  0.0315  0.2953  0.1265
 1625SOL     OW 6497   3.410   2.811   2.736  0.0532  0.2948 -0.2239
 1625SOL    HW2 6498   3.418   2.810   2.831  0.9483 -1.5702 -0.2923
 1625SOL    HW3 6499   3.481   2.755   2.705 -0.4054  0.6323 -1.9836
 1625SOL    MW4 6500   3.420   2.804   2.744  0.1108  0.0933 -0.4651
 1626SOL     OW 6501   3.381   3.067   2.627  0.6197  0.2932  0.2086
 1626SOL    HW2 6502   3.386   2.978   2.662 -1.6575  0.4839  1.0803
 1626SOL    HW3 6503   3.400   3.057   2.534  1.2973 -0.9709  0.4713
 1626SOL    MW4 6504   3.384   3.054   2.619  0.4086  0.1516  0.3583
 1627SOL     OW 6505   3.157   3.188   2.741 -0.4929  0.3101 -0.2049
 1627SOL    HW2 6506   3.225   3.149   2.687 -0.9032  0.9617 -1.2115
 1627SOL    HW3 6507   3.076   3.147   2.711 -0.5474 -0.6163  1.1248
 1627SOL    MW4 6508   3.155   3.177   2.730 -0.5542  0.2738 -0.1623
 1628SOL     OW 6509   3.183   3.438   2.620 -0.2368  0.3373  0.2910
 1628SOL    HW2 6510   3.168   3.350   2.655 -1.3287  0.5770  0.4239
 1628SOL    HW3 6511   3.112   3.491   2.655  0.1789  1.1859 -0.1318
 1628SOL    MW4 6512   3.172   3.433   2.629 -0.3260  0.4809  0.2528
 1629SOL     OW 6513   3.392   3.587   2.735  0.0500  0.4600  0.3510
 1629SOL    HW2 6514   3.396   3.583   2.831  0.3321  0.1675  0.3295
 1629SOL    HW3 6515   3.317   3.532   2.712  1.0687 -0.9353  0.3107
 1629SOL    MW4 6516   3.383   3.579   2.745  0.2216  0.2373  0.3428
 1630SOL     OW 6517   3.390   3.859   2.664  0.3337 -0.1721 -0.2334
 1630SOL    HW2 6518   3.397   3.766   2.683 -0.0256  0.0074  0.8029
 1630SOL    HW3 6519   3.381   3.864   2.569  0.2759 -1.1954 -0.2817
 1630SOL    MW4 6520   3.390   3.847   2.654  0.2787 -0.2834 -0.1030
 1631SOL     OW 6521   3.140   3.967   2.734  0.4446 -0.4994 -0.7805
 1631SOL    HW2 6522   3.149   4.058   2.702 -0.2872 -0.0925  0.1569
 1631SOL    HW3 6523   3.226   3.928   2.718  0.7744  0.3633 -1.1761
 1631SOL    MW4 6524   3.152   3.974   2.727  0.3915 -0.3319 -0.7090
 1632SOL     OW 6525   3.161   4.227   2.619 -0.4977 -0.5116  0.0203
 1632SOL    HW2 6526   3.087   4.272   2.660  0.2303  0.8095 -0.1099
 1632SOL    HW3 6527   3.148   4.240   2.525 -1.2053 -2.0387 -0.1088
 1632SOL    MW4 6528   3.150   4.234   2.612 -0.4950 -0.5388 -0.0139
 1633SOL     OW 6529   3.366   4.374   2.691 -0.2521  0.9678  0.2131
 1633SOL    HW2 6530   3.373   4.368   2.787 -0.8720  0.5623  0.2358
 1633SOL    HW3 6531   3.288   4.323   2.670 -0.3400  1.3937 -0.4773
 1633SOL    MW4 6532   3.357   4.366   2.701 -0.3455  0.9705  0.1250
 1634SOL     OW 6533   3.834   4.625   2.645  0.0475 -0.1014 -0.2705
 1634SOL    HW2 6534   3.818   4.539   2.684 -1.5758 -0.0261 -0.7134
 1634SOL    HW3 6535   3.752   4.673   2.659  1.3073  1.7383  0.9031
 1634SOL    MW4 6536   3.821   4.620   2.652 -0.0004  0.1513 -0.1741
 1635SOL     OW 6537   3.615   0.107   2.735 -0.4715  0.1265 -0.1043
 1635SOL    HW2 6538   3.600   0.201   2.737  0.8097  0.3402 -0.4771
 1635SOL    HW3 6539   3.533   0.071   2.701 -0.2230  1.2680 -1.9743
 1635SOL    MW4 6540   3.602   0.114   2.731 -0.2697  0.3053 -0.4002
 1636SOL     OW 6541   3.585   0.383   2.667 -0.1514  0.3247  0.4918
 1636SOL    HW2 6542   3.665   0.422   2.701 -0.8482  0.5586  1.8872
 1636SOL    HW3 6543   3.514   0.438   2.700 -0.8740  0.3165 -1.0090
 1636SOL    MW4 6544   3.586   0.395   2.676 -0.3387  0.3544  0.4779
 1637SOL     OW 6545   3.823   0.532   2.774 -0.0059  0.0551  0.2866
 1637SOL    HW2 6546   3.824   0.503   2.865 -1.0098 -0.2441  0.2027
 1637SOL    HW3 6547   3.901   0.492   2.736  1.1405  1.2437  1.3341
 1637SOL    MW4 6548   3.833   0.523   2.781  0.0129  0.1724  0.4137
 1638SOL     OW 6549   3.824   0.788   2.666  0.3421 -0.2145  0.0981
 1638SOL    HW2 6550   3.746   0.827   2.704  0.4192  0.4098 -0.3786
 1638SOL    HW3 6551   3.825   0.698   2.700 -0.2681 -0.0500  0.5554
 1638SOL    MW4 6552   3.814   0.781   2.676  0.2718 -0.1104  0.0956
 1639SOL     OW 6553   3.600   0.929   2.763 -0.5819 -0.1036 -0.1348
 1639SOL    HW2 6554   3.611   0.935   2.858 -0.1066 -1.2417 -0.1084
 1639SOL    HW3 6555   3.611   1.019   2.732  2.4002 -0.1678  0.5828
 1639SOL    MW4 6556   3.603   0.942   2.772 -0.1257 -0.2622 -0.0366
 1640SOL     OW 6557   3.610   1.167   2.620  0.0243  0.0544 -0.1655
 1640SOL    HW2 6558   3.684   1.223   2.645  0.9743 -2.2316  2.4062
 1640SOL    HW3 6559   3.533   1.214   2.652  0.6583  0.7334  0.4031
 1640SOL    MW4 6560   3.610   1.181   2.627  0.2333 -0.1577  0.2489
 1641SOL     OW 6561   3.829   1.313   2.745  0.4827 -0.1417  0.1366
 1641SOL    HW2 6562   3.912   1.277   2.714  1.5016  1.5167  0.8868
 1641SOL    HW3 6563   3.826   1.402   2.711 -0.4407  0.2077  1.0826
 1641SOL    MW4 6564   3.839   1.320   2.737  0.4953  0.1232  0.3604
 1642SOL     OW 6565   3.828   1.566   2.664  0.4278 -0.0061  0.4741
 1642SOL    HW2 6566   3.906   1.611   2.697  0.5042  0.0429  0.2269
 1642SOL    HW3 6567   3.755   1.618   2.696  0.4319 -0.8376  1.9209
 1642SOL    MW4 6568   3.829   1.579   2.673  0.4384 -0.1093  0.6324
 1643SOL     OW 6569   3.592   1.693   2.759 -0.2754  0.3580  0.3649
 1643SOL    HW2 6570   3.592   1.783   2.726  0.5898  0.2450  0.0632
 1643SOL    HW3 6571   3.514   1.653   2.719  0.8837  0.1547 -1.7645
 1643SOL    MW4 6572   3.582   1.699   2.750 -0.0083  0.3162  0.0441
 1644SOL     OW 6573   3.610   1.946   2.671 -0.1226 -0.3486  0.1890
 1644SOL    HW2 6574   3.523   1.986   2.682  0.6789  1.4143  0.3450
 1644SOL    HW3 6575   3.611   1.917   2.580  0.0450  1.9611 -0.5807
 1644SOL    MW4 6576   3.598   1.948   2.660  0.0053  0.1887  0.1080
 1645SOL     OW 6577   3.839   2.071   2.791  0.1826  0.1129  0.1934
 1645SOL    HW2 6578   3.907   2.025   2.740  0.0400 -1.1510  1.1201
 1645SOL    HW3 6579   3.758   2.028   2.766 -0.1928  1.1036 -0.3146
 1645SOL    MW4 6580   3.838   2.059   2.781  0.1143  0.0769  0.2486
 1646SOL     OW 6581   3.840   2.311   2.669  0.2592 -0.1387  0.3437
 1646SOL    HW2 6582   3.857   2.224   2.704  0.7068  0.3571  1.3768
 1646SOL    HW3 6583   3.843   2.300   2.574  0.8166 -1.1476  0.4766
 1646SOL    MW4 6584   3.842   2.298   2.661  0.3918 -0.2064  0.4976
 1647SOL     OW 6585   3.616   2.428   2.755 -0.9104  0.2348  0.2870
 1647SOL    HW2 6586   3.613   2.433   2.851  1.4831  2.0386  0.2828
 1647SOL    HW3 6587   3.699   2.384   2.736 -0.2512  2.0048 -1.0118
 1647SOL    MW4 6588   3.626   2.423   2.766 -0.5076  0.7063  0.1151
 1648SOL     OW 6589   3.639   2.685   2.647 -0.1836 -0.0762  0.0901
 1648SOL    HW2 6590   3.619   2.595   2.674 -1.4405  0.6446  1.6266
 1648SOL    HW3 6591   3.643   2.680   2.551 -0.8742 -1.6429  0.1139
 1648SOL    MW4 6592   3.637   2.672   2.638 -0.4405 -0.1878  0.2959
 1649SOL     OW 6593   3.838   2.828   2.781  0.5700  0.3144 -0.3196
 1649SOL    HW2 6594   3.917   2.784   2.750  1.4344  1.4449  0.2543
 1649SOL    HW3 6595   3.766   2.778   2.742  1.5531 -0.9660 -0.5092
 1649SOL    MW4 6596   3.839   2.816   2.772  0.8137  0.2946 -0.2689
 1650SOL     OW 6597   3.831   3.082   2.684 -0.6363 -0.6121  0.4211
 1650SOL    HW2 6598   3.744   3.113   2.709 -0.6355 -1.1129  1.0852
 1650SOL    HW3 6599   3.839   2.998   2.729  0.8151  0.1615  1.6511
 1650SOL    MW4 6600   3.820   3.075   2.693 -0.4447 -0.5761  0.6710
 1651SOL     OW 6601   3.591   3.197   2.756 -0.0092  0.0338  0.7704
 1651SOL    HW2 6602   3.603   3.283   2.714  2.1604 -1.5249 -1.9564
 1651SOL    HW3 6603   3.510   3.163   2.717 -0.0231  0.1781  0.6692
 1651SOL    MW4 6604   3.582   3.204   2.745  0.2752 -0.1528  0.3973
 1652SOL     OW 6605   3.608   3.453   2.635  0.1525  0.0215 -0.1044
 1652SOL    HW2 6606   3.674   3.510   2.673 -0.0155 -0.2401  0.5816
 1652SOL    HW3 6607   3.524   3.494   2.656 -0.0157 -0.9637  1.2304
 1652SOL    MW4 6608   3.605   3.466   2.642  0.1082 -0.1430  0.1623
 1653SOL     OW 6609   3.814   3.616   2.722  0.0066 -0.3731 -0.1657
 1653SOL    HW2 6610   3.895   3.572   2.698  2.0808  0.9704  3.8221
 1653SOL    HW3 6611   3.822   3.703   2.683  0.0395 -0.5657 -0.5895
 1653SOL    MW4 6612   3.826   3.622   2.714  0.2846 -0.2212  0.3045
 1654SOL     OW 6613   3.819   3.877   2.613 -0.4760  0.2337  0.2280
 1654SOL    HW2 6614   3.902   3.908   2.649  0.1757 -1.0121 -0.2125
 1654SOL    HW3 6615   3.755   3.941   2.645  0.5336  0.8091  1.1491
 1654SOL    MW4 6616   3.821   3.890   2.622 -0.2568  0.1453  0.2914
 1655SOL     OW 6617   3.603   4.008   2.754 -0.3509 -0.0656  0.3897
 1655SOL    HW2 6618   3.580   4.094   2.719 -0.3679  0.1424  0.9138
 1655SOL    HW3 6619   3.543   3.948   2.709  1.6748 -0.2057 -2.2408
 1655SOL    MW4 6620   3.592   4.011   2.743 -0.0859 -0.0567  0.1118
 1656SOL     OW 6621   3.590   4.243   2.607  0.1024 -0.0030 -0.0513
 1656SOL    HW2 6622   3.513   4.292   2.636 -0.6408 -1.3466  0.2391
 1656SOL    HW3 6623   3.591   4.255   2.512  0.5397  1.4631  0.1195
 1656SOL    MW4 6624   3.580   4.251   2.599  0.0620  0.0131  0.0095
 1657SOL     OW 6625   3.814   4.360   2.732 -0.2500 -0.0668 -0.0519
 1657SOL    HW2 6626   3.892   4.316   2.699 -0.4183  0.6293 -1.3775
 1657SOL    HW3 6627   3.741   4.317   2.687 -0.4918  0.7404 -0.4415
 1657SOL    MW4 6628   3.815   4.348   2.722 -0.3041  0.1315 -0.2782
 1658SOL     OW 6629   4.257   4.627   2.643 -0.2877  0.2919 -0.2784
 1658SOL    HW2 6630   4.182   4.677   2.674  0.2358  0.7161  0.3113
 1658SOL    HW3 6631   4.333   4.681   2.664  0.2583 -0.5837  0.0461
 1658SOL    MW4 6632   4.257   4.640   2.650 -0.1466  0.2323 -0.1578
 1659SOL     OW 6633   4.036   0.116   2.713 -0.0487  0.2158  0.4159
 1659SOL    HW2 6634   4.041   0.116   2.809 -0.1740 -2.4163  0.4479
 1659SOL    HW3 6635   3.966   0.054   2.692 -0.7626  1.5889 -1.3687
 1659SOL    MW4 6636   4.028   0.108   2.723 -0.1594  0.0497  0.1846
 1660SOL     OW 6637   4.029   0.381   2.677  0.7640  0.4886  0.2097
 1660SOL    HW2 6638   4.024   0.289   2.705  0.0726  1.1298  2.2613
 1660SOL    HW3 6639   4.033   0.376   2.581  0.4227 -1.6709  0.2692
 1660SOL    MW4 6640   4.029   0.368   2.668  0.6278  0.2883  0.4882
 1661SOL     OW 6641   4.255   0.509   2.753 -0.0935 -0.2713 -0.3190
 1661SOL    HW2 6642   4.178   0.464   2.719  0.2576 -0.3281 -1.0460
 1661SOL    HW3 6643   4.329   0.459   2.719  0.3407  1.4066 -1.9736
 1661SOL    MW4 6644   4.254   0.497   2.744  0.0101 -0.0574 -0.6332
 1662SOL     OW 6645   4.259   0.760   2.609 -0.1008  0.2653 -0.3083
 1662SOL    HW2 6646   4.243   0.683   2.662  1.7616  0.1634  0.1428
 1662SOL    HW3 6647   4.250   0.730   2.518 -2.5940  0.2861 -0.1012
 1662SOL    MW4 6648   4.256   0.746   2.604 -0.1840  0.2546 -0.2215
 1663SOL     OW 6649   4.063   0.906   2.737 -0.4280  0.2120 -0.5139
 1663SOL    HW2 6650   4.127   0.855   2.688 -0.8456 -0.2156 -0.6168
 1663SOL    HW3 6651   3.978   0.872   2.708 -0.6863  0.2123  0.2343
 1663SOL    MW4 6652   4.060   0.895   2.727 -0.5172  0.1556 -0.4288
 1664SOL     OW 6653   4.054   1.179   2.636 -0.4401  0.3668  0.2261
 1664SOL    HW2 6654   4.122   1.226   2.685  0.5864 -0.1982 -0.6206
 1664SOL    HW3 6655   4.057   1.090   2.670 -0.4599  0.2393 -0.1026
 1664SOL    MW4 6656   4.064   1.174   2.647 -0.3072  0.2754  0.0710
 1665SOL     OW 6657   4.266   1.303   2.772 -0.1571  0.2672  0.1776
 1665SOL    HW2 6658   4.280   1.394   2.746 -0.2388  0.0032 -0.7969
 1665SOL    HW3 6659   4.332   1.253   2.723 -0.7972 -0.3159 -0.1039
 1665SOL    MW4 6660   4.277   1.308   2.762 -0.2523  0.1555  0.0119
 1666SOL     OW 6661   4.304   1.560   2.678  0.0293  0.1424  0.0378
 1666SOL    HW2 6662   4.390   1.586   2.711  0.3536 -0.6922 -0.1315
 1666SOL    HW3 6663   4.306   1.584   2.586  0.2958 -0.4013 -0.0985
 1666SOL    MW4 6664   4.316   1.566   2.670  0.1072 -0.0394 -0.0026
 1667SOL     OW 6665   4.061   1.693   2.776 -0.2865 -0.1507  0.2143
 1667SOL    HW2 6666   4.080   1.704   2.869  0.8694  0.4409 -0.0803
 1667SOL    HW3 6667   4.142   1.660   2.738 -0.8686 -0.7678 -0.5217
 1667SOL    MW4 6668   4.074   1.690   2.783 -0.2108 -0.1540  0.0783
 1668SOL     OW 6669   4.024   1.935   2.651 -0.4550 -0.3509  0.4367
 1668SOL    HW2 6670   4.105   1.977   2.679  0.9337 -2.6958  0.0750
 1668SOL    HW3 6671   4.024   1.851   2.695 -1.2427 -1.5692 -1.8067
 1668SOL    MW4 6672   4.035   1.930   2.660 -0.3757 -0.8210  0.0930
 1669SOL     OW 6673   4.249   2.061   2.736 -0.1626  0.2913  0.1014
 1669SOL    HW2 6674   4.271   2.148   2.705  0.6171  0.0605 -0.0157
 1669SOL    HW3 6675   4.327   2.008   2.716 -0.2453 -0.2039  1.0589
 1669SOL    MW4 6676   4.262   2.065   2.729 -0.0707  0.1956  0.2123
 1670SOL     OW 6677   4.261   2.328   2.616 -0.0255 -0.2125 -0.1196
 1670SOL    HW2 6678   4.184   2.370   2.654 -0.2179 -1.3309  0.7413
 1670SOL    HW3 6679   4.237   2.311   2.525 -0.5513  0.0395 -0.0252
 1670SOL    MW4 6680   4.248   2.331   2.609 -0.1202 -0.3268  0.0065
 1671SOL     OW 6681   4.052   2.452   2.750  0.5412  0.7141  0.2133
 1671SOL    HW2 6682   4.057   2.422   2.841  1.1353 -0.2033 -0.1194
 1671SOL    HW3 6683   3.967   2.420   2.719 -0.3323  2.3158  0.8911
 1671SOL    MW4 6684   4.042   2.444   2.758  0.5043  0.8044  0.2588
 1672SOL     OW 6685   4.069   2.707   2.690 -0.4936  0.1132  0.2460
 1672SOL    HW2 6686   4.158   2.740   2.702 -0.7951  0.4734  1.6036
 1672SOL    HW3 6687   4.074   2.614   2.711 -0.4783  0.1786  0.5345
 1672SOL    MW4 6688   4.081   2.699   2.694 -0.5314  0.1693  0.4632
 1673SOL     OW 6689   4.322   2.802   2.776  0.0980  0.2869 -0.3451
 1673SOL    HW2 6690   4.311   2.810   2.870 -1.5483  0.2642 -0.5203
 1673SOL    HW3 6691   4.325   2.892   2.744 -2.0924  0.2941 -0.5599
 1673SOL    MW4 6692   4.321   2.815   2.784 -0.4082  0.2848 -0.3966
 1674SOL     OW 6693   4.289   3.072   2.716 -0.0393  0.3004 -0.1426
 1674SOL    HW2 6694   4.208   3.114   2.744 -0.4413  0.1124 -1.0153
 1674SOL    HW3 6695   4.294   3.089   2.622  1.1234  0.6333 -0.0370
 1674SOL    MW4 6696   4.279   3.080   2.707  0.0610  0.3195 -0.2438
 1675SOL     OW 6697   4.049   3.214   2.792  0.0108 -0.2526 -0.6241
 1675SOL    HW2 6698   4.048   3.302   2.753  1.3853  0.9646  1.9946
 1675SOL    HW3 6699   3.969   3.173   2.758 -0.6898  2.0133 -1.8534
 1675SOL    MW4 6700   4.038   3.221   2.782  0.0997  0.2069 -0.4408
 1676SOL     OW 6701   4.030   3.458   2.658  0.3037  0.1257 -0.1710
 1676SOL    HW2 6702   4.109   3.507   2.681  0.8577 -0.4409 -0.8172
 1676SOL    HW3 6703   4.041   3.438   2.565 -1.1304  0.9885 -0.5378
 1676SOL    MW4 6704   4.042   3.462   2.649  0.1876  0.1648 -0.3046
 1677SOL     OW 6705   4.268   3.603   2.737  0.3318  0.0195  0.2408
 1677SOL    HW2 6706   4.280   3.606   2.831  0.1236  0.8984  0.2471
 1677SOL    HW3 6707   4.353   3.575   2.703  0.7772  0.8927  0.6200
 1677SOL    MW4 6708   4.281   3.600   2.745  0.3631  0.2507  0.2916
 1678SOL     OW 6709   4.268   3.858   2.609  0.1144 -0.2204  0.1326
 1678SOL    HW2 6710   4.262   3.771   2.649 -1.2802  0.2829  1.0490
 1678SOL    HW3 6711   4.345   3.897   2.649  1.3159 -1.3659 -0.9895
 1678SOL    MW4 6712   4.277   3.851   2.619  0.0889 -0.3051  0.1054
 1679SOL     OW 6713   4.068   3.987   2.717  0.3878 -0.0252  0.3206
 1679SOL    HW2 6714   4.070   3.977   2.812 -1.1425 -0.1246  0.3588
 1679SOL    HW3 6715   4.147   3.942   2.686  0.8403 -0.0734  1.5265
 1679SOL    MW4 6716   4.079   3.980   2.726  0.2456 -0.0447  0.4847
 1680SOL     OW 6717   4.041   4.250   2.641  0.1736 -0.2995  0.1897
 1680SOL    HW2 6718   4.050   4.156   2.657  0.6230 -0.2945 -0.0241
 1680SOL    HW3 6719   4.049   4.259   2.546 -0.8895 -0.1538  0.1151
 1680SOL    MW4 6720   4.043   4.238   2.631  0.0926 -0.2796  0.1517
 1681SOL     OW 6721   4.254   4.377   2.758  0.3534  0.0923  0.5352
 1681SOL    HW2 6722   4.185   4.330   2.712  1.7876 -1.3504 -0.2312
 1681SOL    HW3 6723   4.255   4.464   2.718  0.4445 -0.5951 -1.0349
 1681SOL    MW4 6724   4.245   4.382   2.746  0.5546 -0.1887  0.2269
 1682SOL     OW 6725   0.160   4.663   3.070  0.4321 -0.1292 -0.2881
 1682SOL    HW2 6726   0.163   4.671   3.165  1.6270  0.4455 -0.3637
 1682SOL    HW3 6727   0.101   4.733   3.041  2.4210  1.6365 -0.1759
 1682SOL    MW4 6728   0.153   4.673   3.079  0.8522  0.1796 -0.2833
 1683SOL     OW 6729   4.440   0.155   2.992  0.0437 -1.0820  0.2122
 1683SOL    HW2 6730   4.377   0.098   3.036  0.5938 -1.6761  0.2430
 1683SOL    HW3 6731   4.440   0.236   3.043 -0.4191 -1.2159  0.4269
 1683SOL    MW4 6732   4.431   0.158   3.004  0.0552 -1.1781  0.2446
 1684SOL     OW 6733   4.480   0.413   3.114 -0.7706 -0.3327 -0.0163
 1684SOL    HW2 6734   4.484   0.402   3.209 -0.7808 -0.4736 -0.0324
 1684SOL    HW3 6735   4.398   0.460   3.098 -0.2356  0.6695  0.1393
 1684SOL    MW4 6736   4.470   0.418   3.124 -0.7013 -0.2190  0.0021
 1685SOL     OW 6737   0.230   0.505   3.011  0.1797  0.5949  0.3308
 1685SOL    HW2 6738   0.289   0.435   3.040  0.7447  0.8464 -0.2072
 1685SOL    HW3 6739   0.144   0.478   3.044  0.1221 -1.1184 -1.1403
 1685SOL    MW4 6740   0.227   0.492   3.020  0.2467  0.4020  0.0657
 1686SOL     OW 6741   0.200   0.772   3.084 -0.5987  0.4225  0.2546
 1686SOL    HW2 6742   0.202   0.755   3.178 -0.8987  0.5707  0.2880
 1686SOL    HW3 6743   0.220   0.687   3.044 -0.1193  0.4411  0.4579
 1686SOL    MW4 6744   0.203   0.758   3.091 -0.5750  0.4445  0.2858
 1687SOL     OW 6745   4.450   0.919   3.020 -0.0827 -0.4962  0.1701
 1687SOL    HW2 6746   4.533   0.873   3.029 -0.2807 -0.8707  0.1362
 1687SOL    HW3 6747   4.427   0.908   2.928 -0.1919 -0.4412  0.1911
 1687SOL    MW4 6748   4.458   0.911   3.009 -0.1232 -0.5383  0.1684
 1688SOL     OW 6749   4.483   1.173   3.126 -0.7721  0.4222 -0.0627
 1688SOL    HW2 6750   4.405   1.220   3.099 -1.0136  0.2000  0.2379
 1688SOL    HW3 6751   4.485   1.095   3.071 -1.1661  0.0591  0.4353
 1688SOL    MW4 6752   4.473   1.169   3.116 -0.8560  0.3450  0.0426
 1689SOL     OW 6753   0.189   1.299   3.025  0.1366 -0.4299 -0.1472
 1689SOL    HW2 6754   0.116   1.256   3.070 -0.6292  1.5121  0.5225
 1689SOL    HW3 6755   0.172   1.283   2.932 -1.2090  0.0967 -0.0000
 1689SOL    MW4 6756   0.177   1.291   3.019 -0.1420 -0.1042 -0.0395
 1690SOL     OW 6757   0.291   1.548   3.089 -0.1020 -0.1142  0.2480
 1690SOL    HW2 6758   0.213   1.600   3.067  0.2986  0.6413  0.6244
 1690SOL    HW3 6759   0.268   1.459   3.061 -1.0061  0.1493  0.1253
 1690SOL    MW4 6760   0.278   1.543   3.082 -0.1685  0.0202  0.2815
 1691SOL     OW 6761   0.041   1.684   3.049 -0.4013  0.0056  0.1519
 1691SOL    HW2 6762  -0.030   1.633   3.087 -0.5919  0.3040  0.1943
 1691SOL    HW3 6763   0.025   1.774   3.078  0.5832 -0.0953  1.0294
 1691SOL    MW4 6764   0.029   1.689   3.058 -0.2966  0.0317  0.2733
 1692SOL     OW 6765   4.439   1.933   3.135  0.4599 -0.2394 -1.0968
 1692SOL    HW2 6766   4.368   1.976   3.087  0.6078  2.3315  0.8685
 1692SOL    HW3 6767   4.519   1.977   3.105  0.6753  0.4983  0.4660
 1692SOL    MW4 6768   4.440   1.945   3.125  0.5078  0.1971 -0.6313
 1693SOL     OW 6769   0.167   2.050   3.029 -0.0148 -0.0318 -0.2169
 1693SOL    HW2 6770   0.189   2.133   3.070  0.1319  0.2382 -0.8338
 1693SOL    HW3 6771   0.171   2.068   2.935 -0.8951 -0.4910 -0.3533
 1693SOL    MW4 6772   0.170   2.063   3.022 -0.1116 -0.0568 -0.3163
 1694SOL     OW 6773   0.248   2.291   3.133  0.2338  0.4604 -0.4788
 1694SOL    HW2 6774   0.238   2.292   3.228  0.3789  0.8873 -0.4664
 1694SOL    HW3 6775   0.322   2.350   3.116  1.1369 -0.7503 -0.7481
 1694SOL    MW4 6776   0.256   2.299   3.143  0.3721  0.3570 -0.5127
 1695SOL     OW 6777   0.023   2.411   3.004 -0.0988  0.0068  0.2201
 1695SOL    HW2 6778   0.022   2.500   3.038 -1.9810  0.7930 -1.7643
 1695SOL    HW3 6779   0.096   2.369   3.049  1.2819  2.7498  0.6511
 1695SOL    MW4 6780   0.032   2.417   3.014 -0.1650  0.4725  0.0151
 1696SOL     OW 6781   0.038   2.675   3.144 -0.1689  0.3737  0.7567
 1696SOL    HW2 6782   0.046   2.672   3.239  1.0800 -1.7887  0.6065
 1696SOL    HW3 6783   0.103   2.740   3.116  0.8546 -0.4220  1.2562
 1696SOL    MW4 6784   0.048   2.683   3.153  0.1309 -0.0166  0.8028
 1697SOL     OW 6785   0.225   2.848   3.033  0.4623 -0.1011 -0.7231
 1697SOL    HW2 6786   0.295   2.785   3.049 -1.1695 -1.4242  1.4349
 1697SOL    HW3 6787   0.221   2.855   2.937  1.0062 -2.9219 -0.9938
 1697SOL    MW4 6788   0.234   2.841   3.022  0.3188 -0.6478 -0.4740
 1698SOL     OW 6789   0.243   3.098   3.179  0.3596 -0.8323  0.2941
 1698SOL    HW2 6790   0.175   3.137   3.124 -0.0482 -0.3696  1.1343
 1698SOL    HW3 6791   0.246   3.006   3.151  0.1660 -0.5992 -0.5095
 1698SOL    MW4 6792   0.235   3.091   3.168  0.2802 -0.7405  0.2989
 1699SOL     OW 6793   0.024   3.223   3.029 -0.4218 -0.0044  0.3198
 1699SOL    HW2 6794  -0.051   3.170   3.057  0.3384 -0.7585  0.9632
 1699SOL    HW3 6795   0.034   3.203   2.936 -2.5411  1.9962 -0.3841
 1699SOL    MW4 6796   0.015   3.214   3.021 -0.6011  0.1600  0.3118
 1700SOL     OW 6797   0.009   3.479   3.153  0.3857 -0.3723  0.3003
 1700SOL    HW2 6798  -0.069   3.520   3.116  1.0793  0.8078  0.1030
 1700SOL    HW3 6799   0.018   3.397   3.106 -0.2624 -0.1291 -0.2595
 1700SOL    MW4 6800  -0.000   3.474   3.142  0.3917 -0.1845  0.2004
 1701SOL     OW 6801   0.217   3.617   3.030 -0.3278  0.4736  0.1896
 1701SOL    HW2 6802   0.215   3.710   3.053 -0.0797  0.6416 -0.4632
 1701SOL    HW3 6803   0.150   3.577   3.086  1.7375  0.4993  2.7603
 1701SOL    MW4 6804   0.208   3.624   3.041 -0.0226  0.4991  0.4426
 1702SOL     OW 6805   0.206   3.898   3.104 -0.6903 -0.2624  0.0934
 1702SOL    HW2 6806   0.208   3.878   3.198 -1.1846  0.5415  0.2857
 1702SOL    HW3 6807   0.290   3.939   3.086 -1.6391  2.0957  0.7875
 1702SOL    MW4 6808   0.217   3.901   3.114 -0.8807  0.1548  0.2104
 1703SOL     OW 6809   4.465   4.010   2.991 -0.1029  0.0873 -0.0176
 1703SOL    HW2 6810   4.545   3.966   3.021 -0.9938 -0.8923  1.0074
 1703SOL    HW3 6811   4.471   4.008   2.896  0.7268 -0.6877  0.0386
 1703SOL    MW4 6812   4.476   4.004   2.983 -0.1110 -0.1442  0.1251
 1704SOL     OW 6813   4.488   4.263   3.106  0.0934  0.2696  0.6468
 1704SOL    HW2 6814   4.490   4.247   3.201  0.0660 -1.9514  0.3026
 1704SOL    HW3 6815   4.492   4.176   3.067 -0.7735  1.1067 -1.3953
 1704SOL    MW4 6816   4.489   4.249   3.114 -0.0246  0.0870  0.3320
 1705SOL     OW 6817   0.218   4.387   3.016  0.0275 -0.5479  0.6742
 1705SOL    HW2 6818   0.147   4.337   3.057  0.1354  0.4276  2.1111
 1705SOL    HW3 6819   0.197   4.479   3.036  1.3058 -0.2070  0.5042
 1705SOL    MW4 6820   0.206   4.393   3.024  0.2104 -0.3742  0.8414
 1706SOL     OW 6821   0.651   0.007   3.124 -0.1689  0.5055  0.2768
 1706SOL    HW2 6822   0.673  -0.066   3.067 -0.0786  0.0887  0.8438
 1706SOL    HW3 6823   0.562   0.032   3.099 -0.0893  0.3950 -0.1159
 1706SOL    MW4 6824   0.643   0.001   3.113 -0.1465  0.4359  0.2998
 1707SOL     OW 6825   0.410   0.080   2.992 -0.4597 -0.5389 -0.3505
 1707SOL    HW2 6826   0.418   0.169   3.027 -2.0134  0.6087 -2.7476
 1707SOL    HW3 6827   0.324   0.050   3.021  0.2838 -1.5231  0.9209
 1707SOL    MW4 6828   0.400   0.088   3.000 -0.5666 -0.5174 -0.4991
 1708SOL     OW 6829   0.431   0.333   3.108 -0.2110 -0.4919 -0.3051
 1708SOL    HW2 6830   0.440   0.340   3.203  0.6851 -1.1406 -0.3373
 1708SOL    HW3 6831   0.506   0.382   3.073 -2.3304  2.5658 -0.7450
 1708SOL    MW4 6832   0.442   0.340   3.116 -0.3724 -0.1741 -0.3674
 1709SOL     OW 6833   0.666   0.469   3.000 -0.4673 -0.0937 -0.0373
 1709SOL    HW2 6834   0.752   0.444   3.036 -1.7412 -1.7429  1.9892
 1709SOL    HW3 6835   0.650   0.557   3.036  1.1543  1.0054 -1.9163
 1709SOL    MW4 6836   0.675   0.477   3.010 -0.4214 -0.1663 -0.0179
 1710SOL     OW 6837   0.659   0.731   3.081  0.4409 -0.2401 -0.0054
 1710SOL    HW2 6838   0.658   0.759   3.172 -1.2587  1.2796 -0.4606
 1710SOL    HW3 6839   0.597   0.789   3.037  0.2607 -1.7836 -1.8814
 1710SOL    MW4 6840   0.650   0.742   3.087  0.1929 -0.2432 -0.3130
 1711SOL     OW 6841   0.425   0.902   3.031  0.2566  0.4740 -0.0507
 1711SOL    HW2 6842   0.347   0.848   3.046  1.9285 -2.1354 -0.5315
 1711SOL    HW3 6843   0.428   0.913   2.936  0.3181  0.8510 -0.0060
 1711SOL    MW4 6844   0.415   0.897   3.021  0.4853  0.1795 -0.1082
 1712SOL     OW 6845   0.443   1.153   3.144  0.3419  0.0808 -0.5332
 1712SOL    HW2 6846   0.422   1.061   3.125  1.0202 -0.0332 -0.7242
 1712SOL    HW3 6847   0.385   1.202   3.086 -0.6184 -0.2045  0.1551
 1712SOL    MW4 6848   0.433   1.147   3.134  0.3047  0.0281 -0.4676
 1713SOL     OW 6849   0.696   1.229   3.030  0.1703  0.3413  0.3633
 1713SOL    HW2 6850   0.771   1.173   3.050 -0.1121  0.7227  2.6754
 1713SOL    HW3 6851   0.621   1.182   3.067 -0.2285  1.6398  1.2322
 1713SOL    MW4 6852   0.696   1.215   3.037  0.0804  0.5629  0.7830
 1714SOL     OW 6853   0.717   1.494   3.111 -0.3942  0.1789 -0.3122
 1714SOL    HW2 6854   0.714   1.489   3.207  0.5363  0.0975 -0.2793
 1714SOL    HW3 6855   0.716   1.403   3.082  0.2310  0.1723 -0.3354
 1714SOL    MW4 6856   0.717   1.481   3.120 -0.1890  0.1673 -0.3109
 1715SOL     OW 6857   0.515   1.682   3.015 -0.2137 -0.1386 -0.1987
 1715SOL    HW2 6858   0.594   1.641   3.051 -0.3431  0.5000  0.8287
 1715SOL    HW3 6859   0.444   1.623   3.041 -0.1045 -0.6010 -0.9382
 1715SOL    MW4 6860   0.516   1.668   3.023 -0.2164 -0.1154 -0.1607
 1716SOL     OW 6861   0.407   1.945   3.119 -0.1234  0.5905  0.0901
 1716SOL    HW2 6862   0.426   1.858   3.083  0.6461  0.4065  0.9267
 1716SOL    HW3 6863   0.322   1.968   3.082 -0.6645 -0.8231  0.4183
 1716SOL    MW4 6864   0.398   1.936   3.109 -0.0933  0.3797  0.2438
 1717SOL     OW 6865   0.653   2.019   3.016 -0.0640 -0.7185 -0.3401
 1717SOL    HW2 6866   0.722   1.967   3.055 -0.6629 -1.5402 -0.3721
 1717SOL    HW3 6867   0.574   1.997   3.066 -0.1855  0.6688  0.0942
 1717SOL    MW4 6868   0.652   2.009   3.028 -0.1591 -0.6439 -0.2870
 1718SOL     OW 6869   0.695   2.298   3.093  0.0843  0.5368 -0.2496
 1718SOL    HW2 6870   0.684   2.293   3.188 -1.2560  0.8510 -0.3854
 1718SOL    HW3 6871   0.692   2.207   3.064 -1.1453  0.5394 -0.1604
 1718SOL    MW4 6872   0.693   2.285   3.101 -0.2548  0.5786 -0.2557
 1719SOL     OW 6873   0.469   2.432   3.047 -0.3587  0.1343 -0.1315
 1719SOL    HW2 6874   0.546   2.375   3.054 -0.3342  0.1604 -0.1964
 1719SOL    HW3 6875   0.457   2.445   2.953  0.4774  1.3845 -0.0703
 1719SOL    MW4 6876   0.478   2.426   3.036 -0.2452  0.3027 -0.1320
 1720SOL     OW 6877   0.469   2.688   3.135 -0.4197  0.4059  0.3733
 1720SOL    HW2 6878   0.550   2.726   3.100  0.8769 -0.4495  2.3951
 1720SOL    HW3 6879   0.469   2.598   3.104 -0.4066  0.2854  0.7278
 1720SOL    MW4 6880   0.479   2.681   3.126 -0.2469  0.2772  0.6868
 1721SOL     OW 6881   0.677   2.823   2.998 -0.1772 -0.0266  0.6333
 1721SOL    HW2 6882   0.769   2.804   3.014  0.2764  1.2666 -0.3385
 1721SOL    HW3 6883   0.668   2.916   3.021 -0.7806  0.3685 -1.1455
 1721SOL    MW4 6884   0.688   2.833   3.003 -0.1970  0.1962  0.2704
 1722SOL     OW 6885   0.668   3.091   3.090  0.2607 -0.4063  0.0745
 1722SOL    HW2 6886   0.673   3.083   3.186  1.5858 -1.4825 -0.0602
 1722SOL    HW3 6887   0.587   3.139   3.074 -0.4244 -0.9822  1.7022
 1722SOL    MW4 6888   0.658   3.096   3.101  0.3451 -0.6243  0.2715
 1723SOL     OW 6889   0.430   3.221   3.029 -0.3776  0.2969  0.6119
 1723SOL    HW2 6890   0.430   3.315   3.046 -0.1483  0.5080 -0.5080
 1723SOL    HW3 6891   0.361   3.186   3.085 -0.6064  1.1655  0.8715
 1723SOL    MW4 6892   0.421   3.229   3.038 -0.3776  0.4393  0.4984
 1724SOL     OW 6893   0.462   3.511   3.118 -0.1288  0.2766  0.2038
 1724SOL    HW2 6894   0.459   3.499   3.213 -0.3869  0.6346  0.2440
 1724SOL    HW3 6895   0.375   3.545   3.095 -0.3607 -0.6382 -0.2769
 1724SOL    MW4 6896   0.450   3.514   3.127 -0.1934  0.2031  0.1457
 1725SOL     OW 6897   0.695   3.601   2.997 -0.2233  0.2332  0.0361
 1725SOL    HW2 6898   0.767   3.566   3.050  0.8081  0.3909 -1.2354
 1725SOL    HW3 6899   0.617   3.557   3.030  0.8059 -1.9216 -0.3141
 1725SOL    MW4 6900   0.694   3.591   3.008  0.0486 -0.0303 -0.1779
 1726SOL     OW 6901   0.687   3.868   3.106  0.9046  0.0915 -0.4708
 1726SOL    HW2 6902   0.676   3.852   3.199  0.3349  0.7054 -0.4282
 1726SOL    HW3 6903   0.682   3.782   3.065 -1.8654  0.1048 -0.2414
 1726SOL    MW4 6904   0.685   3.855   3.113  0.4640  0.1743 -0.4349
 1727SOL     OW 6905   0.455   4.014   3.038  0.2654  0.6295 -0.1725
 1727SOL    HW2 6906   0.525   3.953   3.060 -1.4585 -1.4021 -0.1918
 1727SOL    HW3 6907   0.460   4.023   2.943  0.1057 -0.0080 -0.2433
 1727SOL    MW4 6908   0.465   4.007   3.029  0.0169  0.2773 -0.1844
 1728SOL     OW 6909   0.459   4.282   3.117  0.0237  0.0074 -0.0383
 1728SOL    HW2 6910   0.446   4.191   3.090  1.2157 -0.1647 -0.0750
 1728SOL    HW3 6911   0.382   4.328   3.085 -0.8419 -1.0874  0.4331
 1728SOL    MW4 6912   0.447   4.276   3.109  0.0668 -0.1598  0.0191
 1729SOL     OW 6913   0.678   4.414   3.026  0.0212  0.0999 -0.1676
 1729SOL    HW2 6914   0.610   4.357   3.060  1.1747 -1.0986  0.1587
 1729SOL    HW3 6915   0.662   4.417   2.931 -1.5289  1.2456  0.1083
 1729SOL    MW4 6916   0.667   4.407   3.018 -0.0311  0.0929 -0.0881
 1730SOL     OW 6917   1.117   0.012   3.138 -0.1189 -0.1337  0.2093
 1730SOL    HW2 6918   1.201   0.028   3.095 -0.0757 -3.4290 -1.0820
 1730SOL    HW3 6919   1.053   0.061   3.087  0.5593 -0.3578 -0.8577
 1730SOL    MW4 6920   1.120   0.020   3.126 -0.0237 -0.5981 -0.1018
 1731SOL     OW 6921   0.884   0.133   3.012 -0.3439  0.4585  0.0143
 1731SOL    HW2 6922   0.888   0.224   3.043 -0.0980  0.1473  0.9220
 1731SOL    HW3 6923   0.820   0.092   3.070 -0.1038 -0.0621 -0.0893
 1731SOL    MW4 6924   0.876   0.140   3.024 -0.2798  0.3488  0.1204
 1732SOL     OW 6925   0.912   0.388   3.105 -0.0225  0.8457  0.1422
 1732SOL    HW2 6926   0.926   0.371   3.198  0.5659 -1.2931 -0.3136
 1732SOL    HW3 6927   0.990   0.437   3.078  0.0141  1.0771  0.6540
 1732SOL    MW4 6928   0.924   0.392   3.114  0.0600  0.5940  0.1496
 1733SOL     OW 6929   1.148   0.479   3.011  0.1926 -0.0931  0.2990
 1733SOL    HW2 6930   1.219   0.434   3.055 -0.2144 -0.4755  0.5707
 1733SOL    HW3 6931   1.171   0.475   2.918 -0.4644 -1.9821  0.2024
 1733SOL    MW4 6932   1.160   0.473   3.004  0.0523 -0.3927  0.3221
 1734SOL     OW 6933   1.108   0.754   3.094  0.0559  0.1007 -0.2270
 1734SOL    HW2 6934   1.101   0.759   3.190  2.0774  0.0040 -0.0402
 1734SOL    HW3 6935   1.141   0.666   3.077 -2.0624 -0.5492 -1.1689
 1734SOL    MW4 6936   1.112   0.743   3.105  0.0431  0.0022 -0.3266
 1735SOL     OW 6937   0.891   0.841   2.955  0.1467  0.2110  0.1580
 1735SOL    HW2 6938   0.966   0.808   3.004  0.5913  2.6261  1.2108
 1735SOL    HW3 6939   0.815   0.800   2.996  0.6968  0.1912  1.1801
 1735SOL    MW4 6940   0.891   0.831   2.967  0.2779  0.5270  0.4318
 1736SOL     OW 6941   0.918   1.076   3.116  0.0792 -0.2896  0.2109
 1736SOL    HW2 6942   0.982   1.138   3.081 -2.5445  1.2370 -2.2324
 1736SOL    HW3 6943   0.920   1.003   3.054  0.9344 -1.2278  1.3262
 1736SOL    MW4 6944   0.926   1.075   3.103 -0.1541 -0.2120  0.0357
 1737SOL     OW 6945   1.128   1.224   3.012  0.1526 -0.3310  0.5334
 1737SOL    HW2 6946   1.211   1.193   3.049  0.5692  2.0127  1.7202
 1737SOL    HW3 6947   1.149   1.248   2.922  0.3435 -1.3732  0.2959
 1737SOL    MW4 6948   1.142   1.223   3.005  0.2328 -0.1593  0.6586
 1738SOL     OW 6949   1.127   1.495   3.103 -0.7212  0.4030  0.8362
 1738SOL    HW2 6950   1.217   1.521   3.084 -0.9017  0.2449 -0.2592
 1738SOL    HW3 6951   1.121   1.404   3.073 -1.1584  0.3104  1.1891
 1738SOL    MW4 6952   1.138   1.486   3.097 -0.8027  0.3699  0.7383
 1739SOL     OW 6953   0.913   1.646   2.998 -0.5205 -0.1986  0.1495
 1739SOL    HW2 6954   0.996   1.599   3.007 -0.3236  0.2599  0.7363
 1739SOL    HW3 6955   0.849   1.591   3.044 -0.4852 -0.3999 -0.0412
 1739SOL    MW4 6956   0.915   1.632   3.005 -0.4899 -0.1646  0.2018
 1740SOL     OW 6957   0.915   1.887   3.092  0.6114 -0.1267 -0.8324
 1740SOL    HW2 6958   0.910   1.875   3.187  1.1023  0.1630 -0.7681
 1740SOL    HW3 6959   0.926   1.798   3.057  0.6751 -0.2102 -0.6032
 1740SOL    MW4 6960   0.916   1.874   3.100  0.6846 -0.0995 -0.7936
 1741SOL     OW 6961   1.128   2.027   3.034  0.0620 -0.2294  0.3601
 1741SOL    HW2 6962   1.042   1.991   3.057  0.5648 -1.3718  0.5012
 1741SOL    HW3 6963   1.132   2.021   2.939 -0.2876  0.4737  0.2974
 1741SOL    MW4 6964   1.117   2.022   3.024  0.0822 -0.2874  0.3705
 1742SOL     OW 6965   1.129   2.328   3.125 -0.3620 -0.1250  0.0353
 1742SOL    HW2 6966   1.060   2.373   3.077  0.9569  0.5928 -1.2251
 1742SOL    HW3 6967   1.130   2.240   3.087 -1.2982 -0.4736  0.8059
 1742SOL    MW4 6968   1.120   2.322   3.114 -0.3115 -0.0763 -0.0293
 1743SOL     OW 6969   0.920   2.433   2.977  0.1537  0.0120  0.0875
 1743SOL    HW2 6970   0.841   2.392   3.011  1.0694 -1.6082  0.2936
 1743SOL    HW3 6971   0.917   2.416   2.883 -0.2604  0.8590 -0.0579
 1743SOL    MW4 6972   0.909   2.425   2.969  0.2199 -0.0900  0.0956
 1744SOL     OW 6973   0.920   2.702   3.063  0.4592 -0.3197  0.3490
 1744SOL    HW2 6974   0.892   2.703   3.155  1.9728 -1.3686  0.8479
 1744SOL    HW3 6975   0.917   2.610   3.039 -1.1125  0.0867 -1.0488
 1744SOL    MW4 6976   0.916   2.690   3.072  0.4515 -0.4045  0.2304
 1745SOL     OW 6977   1.152   2.836   3.040 -0.2149  0.2556  0.0679
 1745SOL    HW2 6978   1.149   2.925   3.076 -0.0388  0.0412  0.6138
 1745SOL    HW3 6979   1.062   2.805   3.045 -0.9509  1.6439 -3.2750
 1745SOL    MW4 6980   1.140   2.844   3.045 -0.2888  0.4105 -0.3011
 1746SOL     OW 6981   1.117   3.091   3.150  0.0675  0.0724 -0.0579
 1746SOL    HW2 6982   1.193   3.136   3.111 -0.1494  0.9080  0.4649
 1746SOL    HW3 6983   1.042   3.126   3.102 -0.1857  0.9856  0.9807
 1746SOL    MW4 6984   1.117   3.102   3.139  0.0055  0.3032  0.1481
 1747SOL     OW 6985   0.914   3.219   3.017  0.1823 -0.2797  0.3860
 1747SOL    HW2 6986   0.823   3.194   3.031 -0.3430  1.4499  0.1566
 1747SOL    HW3 6987   0.925   3.219   2.922 -0.1873  1.5914  0.3334
 1747SOL    MW4 6988   0.904   3.216   3.006  0.0642  0.1954  0.3488
 1748SOL     OW 6989   0.896   3.495   3.146 -0.2357  0.5739 -0.2324
 1748SOL    HW2 6990   0.957   3.545   3.092 -1.0426  0.4448 -1.2722
 1748SOL    HW3 6991   0.911   3.404   3.122  1.6267  0.2209  2.0626
 1748SOL    MW4 6992   0.906   3.490   3.136 -0.0964  0.5103 -0.0668
 1749SOL     OW 6993   1.104   3.633   3.010 -0.0240 -0.3203 -0.0308
 1749SOL    HW2 6994   1.184   3.595   3.045  0.6079  0.4219 -0.6707
 1749SOL    HW3 6995   1.093   3.715   3.057 -0.7598 -0.7190  0.5122
 1749SOL    MW4 6996   1.113   3.639   3.021 -0.0377 -0.2749 -0.0436
 1750SOL     OW 6997   1.144   3.898   3.109  0.2006  0.0932 -0.2887
 1750SOL    HW2 6998   1.146   3.909   3.204 -1.9180 -0.9222 -0.0843
 1750SOL    HW3 6999   1.073   3.955   3.080 -0.6197 -1.2369 -0.9791
 1750SOL    MW4 7000   1.135   3.907   3.118 -0.1872 -0.2163 -0.3528
 1751SOL     OW 7001   0.906   4.023   3.025  0.1343  0.2188  0.5288
 1751SOL    HW2 7002   0.844   3.959   3.060 -0.3552 -0.1492 -0.9825
 1751SOL    HW3 7003   0.909   4.005   2.931  1.1285  1.4491  0.3098
 1751SOL    MW4 7004   0.898   4.012   3.017  0.2009  0.3325  0.3005
 1752SOL     OW 7005   0.904   4.285   3.107 -0.4597 -0.2189 -0.0043
 1752SOL    HW2 7006   0.892   4.198   3.068 -1.1180 -0.6952  1.2532
 1752SOL    HW3 7007   0.831   4.336   3.074 -0.1896 -0.1907 -0.5754
 1752SOL    MW4 7008   0.893   4.280   3.097 -0.5109 -0.2780  0.0863
 1753SOL     OW 7009   1.132   4.406   3.030 -0.3105  0.6349  0.4581
 1753SOL    HW2 7010   1.046   4.367   3.048 -0.0514  0.2676  0.8835
 1753SOL    HW3 7011   1.127   4.493   3.071 -0.3686  0.4924  0.7565
 1753SOL    MW4 7012   1.120   4.413   3.038 -0.2839  0.5676  0.5536
 1754SOL     OW 7013   1.569   4.650   3.104  0.0994 -0.0138 -0.6925
 1754SOL    HW2 7014   1.548   4.639   3.197 -0.6275 -1.3876 -0.9998
 1754SOL    HW3 7015   1.493   4.696   3.068 -0.3415 -0.8888 -0.9029
 1754SOL    MW4 7016   1.556   4.654   3.111 -0.0547 -0.3105 -0.7608
 1755SOL     OW 7017   1.355   0.104   2.992 -0.2644 -0.0931  0.3948
 1755SOL    HW2 7018   1.365   0.192   3.027  1.1805 -0.1714  0.2148
 1755SOL    HW3 7019   1.352   0.116   2.897 -3.0135  0.0166  0.4786
 1755SOL    MW4 7020   1.356   0.117   2.984 -0.4365 -0.0889  0.3821
 1756SOL     OW 7021   1.378   0.357   3.118 -0.1642 -0.3666  0.0468
 1756SOL    HW2 7022   1.370   0.363   3.213  1.0965 -0.3763  0.1689
 1756SOL    HW3 7023   1.465   0.391   3.099 -0.3759 -0.4253 -1.1029
 1756SOL    MW4 7024   1.388   0.362   3.128 -0.0258 -0.3756 -0.0888
 1757SOL     OW 7025   1.605   0.470   3.036 -0.5960  0.1172  0.1629
 1757SOL    HW2 7026   1.597   0.564   3.055  0.3224  0.4945 -1.2549
 1757SOL    HW3 7027   1.592   0.464   2.942  1.7605 -0.8907 -0.1170
 1757SOL    MW4 7028   1.602   0.482   3.026 -0.1639  0.0340 -0.0611
 1758SOL     OW 7029   1.577   0.746   3.081 -0.0267 -0.4211  0.3830
 1758SOL    HW2 7030   1.571   0.766   3.174 -1.1826 -0.6674  0.3606
 1758SOL    HW3 7031   1.505   0.795   3.041  0.8515  0.1980 -0.4690
 1758SOL    MW4 7032   1.567   0.755   3.088 -0.0633 -0.3719  0.2677
 1759SOL     OW 7033   1.344   0.869   2.981 -0.0529  0.0498 -0.4220
 1759SOL    HW2 7034   1.362   0.958   3.009  0.4341 -0.0086 -0.5521
 1759SOL    HW3 7035   1.279   0.837   3.044 -0.9783  0.8265 -0.9681
 1759SOL    MW4 7036   1.338   0.876   2.993 -0.1108  0.1446 -0.5112
 1760SOL     OW 7037   1.378   1.130   3.067  0.1800  0.0449 -0.1691
 1760SOL    HW2 7038   1.378   1.130   3.162  0.2257 -0.6543 -0.1677
 1760SOL    HW3 7039   1.458   1.178   3.043  0.1676  0.2227  0.1389
 1760SOL    MW4 7040   1.388   1.137   3.076  0.1844 -0.0239 -0.1283
 1761SOL     OW 7041   1.615   1.247   2.986  0.0383  0.5621  0.1713
 1761SOL    HW2 7042   1.694   1.201   3.012  0.3332  0.3510 -1.0637
 1761SOL    HW3 7043   1.628   1.337   3.016  0.3463  0.3181  0.7778
 1761SOL    MW4 7044   1.627   1.252   2.993  0.1179  0.5021  0.0884
 1762SOL     OW 7045   1.644   1.495   3.120  0.3184 -1.1016  0.1713
 1762SOL    HW2 7046   1.700   1.557   3.073  0.6733 -0.3078  1.6192
 1762SOL    HW3 7047   1.555   1.524   3.099  0.3695 -2.9978 -2.9766
 1762SOL    MW4 7048   1.640   1.507   3.111  0.3720 -1.2470 -0.0530
 1763SOL     OW 7049   1.367   1.600   3.033  0.2008  0.2167 -0.1731
 1763SOL    HW2 7050   1.361   1.690   3.064  0.2682  0.2587 -0.2797
 1763SOL    HW3 7051   1.363   1.608   2.937 -1.3365 -0.0024 -0.1421
 1763SOL    MW4 7052   1.366   1.613   3.024  0.0069  0.1934 -0.1831
 1764SOL     OW 7053   1.326   1.853   3.115  0.3647  0.3143  0.3748
 1764SOL    HW2 7054   1.331   1.857   3.211 -0.8993 -0.2569  0.4689
 1764SOL    HW3 7055   1.256   1.915   3.093  0.9307  0.7528 -0.2193
 1764SOL    MW4 7056   1.318   1.862   3.125  0.2726  0.2968  0.3088
 1765SOL     OW 7057   1.568   2.010   3.069 -0.1173 -0.0891  0.2673
 1765SOL    HW2 7058   1.485   1.964   3.082 -0.9614  1.1512 -0.5833
 1765SOL    HW3 7059   1.582   2.009   2.974  0.8626 -0.3104  0.4043
 1765SOL    MW4 7060   1.559   2.004   3.058 -0.0994  0.0453  0.1732
 1766SOL     OW 7061   1.582   2.293   3.117  0.5055  0.4438  0.1201
 1766SOL    HW2 7062   1.510   2.337   3.071  1.5590  1.5809 -0.4603
 1766SOL    HW3 7063   1.569   2.200   3.097  0.0273  0.7679 -1.1889
 1766SOL    MW4 7064   1.571   2.286   3.108  0.5814  0.6366 -0.1292
 1767SOL     OW 7065   1.379   2.445   2.995  0.0844  0.0211  0.1607
 1767SOL    HW2 7066   1.296   2.403   3.018 -0.2432  0.8084  0.4225
 1767SOL    HW3 7067   1.377   2.452   2.900 -0.5718  0.8933  0.2316
 1767SOL    MW4 7068   1.368   2.440   2.986 -0.0454  0.2400  0.2046
 1768SOL     OW 7069   1.352   2.680   3.150  0.2378 -0.2699  0.3518
 1768SOL    HW2 7070   1.349   2.593   3.112 -0.6432 -0.5989  1.1415
 1768SOL    HW3 7071   1.280   2.727   3.108  0.4115 -0.0751  0.2738
 1768SOL    MW4 7072   1.342   2.675   3.140  0.1445 -0.2876  0.4457
 1769SOL     OW 7073   1.547   2.840   3.016 -0.3660  0.0437 -0.2428
 1769SOL    HW2 7074   1.632   2.807   3.047 -0.2066  1.3500  0.7491
 1769SOL    HW3 7075   1.483   2.777   3.050  0.3158 -1.7788 -2.2581
 1769SOL    MW4 7076   1.550   2.827   3.025 -0.2550 -0.0244 -0.3778
 1770SOL     OW 7077   1.570   3.081   3.137 -0.0265 -0.4738  0.1994
 1770SOL    HW2 7078   1.592   3.069   3.229  2.1835 -0.7387 -0.3350
 1770SOL    HW3 7079   1.556   2.992   3.104  0.3901 -0.4683  0.0040
 1770SOL    MW4 7080   1.571   3.067   3.145  0.3201 -0.5080  0.1031
 1771SOL     OW 7081   1.335   3.210   3.034 -0.1007  0.3140  0.2468
 1771SOL    HW2 7082   1.412   3.160   3.059 -0.2339  0.0916  0.2167
 1771SOL    HW3 7083   1.342   3.219   2.939  0.4332  1.2058  0.3732
 1771SOL    MW4 7084   1.346   3.204   3.024 -0.0478  0.4023  0.2595
 1772SOL     OW 7085   1.347   3.509   3.099  0.4339 -0.0327  0.3710
 1772SOL    HW2 7086   1.352   3.495   3.194 -1.6135  1.4770  0.7176
 1772SOL    HW3 7087   1.345   3.420   3.062  1.2864 -0.6327  1.7136
 1772SOL    MW4 7088   1.348   3.495   3.107  0.2762  0.0873  0.5938
 1773SOL     OW 7089   1.588   3.605   3.030  0.2666  0.1866 -0.1999
 1773SOL    HW2 7090   1.504   3.564   3.051  1.3878 -1.4521  1.2439
 1773SOL    HW3 7091   1.584   3.622   2.935 -1.2710 -0.8298 -0.3264
 1773SOL    MW4 7092   1.576   3.602   3.020  0.2117 -0.1637 -0.0261
 1774SOL     OW 7093   1.631   3.864   3.140 -0.4614 -0.1426  0.4557
 1774SOL    HW2 7094   1.706   3.892   3.089 -1.1893  1.8904  0.4436
 1774SOL    HW3 7095   1.614   3.774   3.111  0.1378  0.4066 -1.6776
 1774SOL    MW4 7096   1.638   3.856   3.130 -0.4784  0.1981  0.1726
 1775SOL     OW 7097   1.379   4.002   3.022 -0.1742 -0.7711 -0.4615
 1775SOL    HW2 7098   1.456   3.984   3.076 -0.9432 -2.6265  0.0548
 1775SOL    HW3 7099   1.305   3.970   3.074 -1.1993  0.0223 -1.4109
 1775SOL    MW4 7100   1.380   3.996   3.036 -0.4109 -0.9112 -0.5187
 1776SOL     OW 7101   1.370   4.259   3.117  0.1158 -0.3639 -0.3132
 1776SOL    HW2 7102   1.379   4.172   3.076 -0.3425 -0.7807  0.4491
 1776SOL    HW3 7103   1.288   4.293   3.081 -0.1385 -0.6075  0.0322
 1776SOL    MW4 7104   1.360   4.252   3.107  0.0218 -0.4510 -0.1670
 1777SOL     OW 7105   1.615   4.403   3.003  0.0446  0.0839  0.0488
 1777SOL    HW2 7106   1.545   4.378   3.064 -1.3764  1.2682 -1.0695
 1777SOL    HW3 7107   1.632   4.495   3.022 -0.0357  0.3111 -0.9839
 1777SOL    MW4 7108   1.608   4.412   3.014 -0.1535  0.2701 -0.2350
 1778SOL     OW 7109   2.037   4.615   3.088  0.3686  0.4350  0.0270
 1778SOL    HW2 7110   2.043   4.606   3.183  2.0040  0.4333 -0.0666
 1778SOL    HW3 7111   1.957   4.667   3.074 -0.4480 -0.4479  1.3333
 1778SOL    MW4 7112   2.027   4.621   3.098  0.4766  0.3183  0.1870
 1779SOL     OW 7113   1.822   0.119   3.047 -0.0277 -0.3372 -0.1414
 1779SOL    HW2 7114   1.741   0.070   3.066 -1.2170  1.7871  0.4204
 1779SOL    HW3 7115   1.828   0.119   2.951 -1.1328  0.1870 -0.2147
 1779SOL    MW4 7116   1.812   0.112   3.037 -0.3304  0.0122 -0.0769
 1780SOL     OW 7117   1.836   0.369   3.137 -0.1471  0.0456  0.2290
 1780SOL    HW2 7118   1.838   0.278   3.105  0.0479 -0.0362  0.4794
 1780SOL    HW3 7119   1.759   0.407   3.094  1.0698  0.4264 -1.6712
 1780SOL    MW4 7120   1.826   0.362   3.127  0.0392  0.0851  0.0114
 1781SOL     OW 7121   2.056   0.504   3.036 -0.0950 -0.0922 -0.8163
 1781SOL    HW2 7122   1.984   0.455   3.076  0.8903 -0.6159  0.3692
 1781SOL    HW3 7123   2.043   0.495   2.942 -0.8888 -1.1844 -0.6080
 1781SOL    MW4 7124   2.045   0.497   3.029 -0.0698 -0.3054 -0.6324
 1782SOL     OW 7125   2.028   0.764   3.128 -0.3676 -0.0424  0.1380
 1782SOL    HW2 7126   1.953   0.792   3.076 -0.2305 -0.2408 -0.1688
 1782SOL    HW3 7127   2.051   0.678   3.093  1.0097  0.7068 -0.8473
 1782SOL    MW4 7128   2.021   0.756   3.117 -0.1678  0.0302 -0.0325
 1783SOL     OW 7129   1.798   0.883   3.014  0.4117 -0.0841  0.1016
 1783SOL    HW2 7130   1.720   0.832   3.035 -0.7399  2.3687  2.1317
 1783SOL    HW3 7131   1.800   0.887   2.919 -0.8510 -1.8069 -0.0079
 1783SOL    MW4 7132   1.788   0.877   3.004  0.0932  0.0122  0.3550
 1784SOL     OW 7133   1.842   1.146   3.092  0.5351 -0.0212  0.1583
 1784SOL    HW2 7134   1.839   1.152   3.188  0.7540  1.0122  0.1090
 1784SOL    HW3 7135   1.850   1.052   3.074 -1.9918 -0.4444  1.0671
 1784SOL    MW4 7136   1.843   1.134   3.103  0.2306  0.0593  0.2717
 1785SOL     OW 7137   2.030   1.290   2.984 -0.7430  0.2119  0.1339
 1785SOL    HW2 7138   2.111   1.243   3.003 -0.5637 -0.2441 -1.7109
 1785SOL    HW3 7139   1.960   1.231   3.014 -0.4245  0.2208  0.9003
 1785SOL    MW4 7140   2.031   1.276   2.991 -0.6774  0.1529 -0.0084
 1786SOL     OW 7141   2.084   1.549   3.091  0.1750 -0.4569  0.0263
 1786SOL    HW2 7142   2.067   1.544   3.186  1.5794  0.4140  0.3384
 1786SOL    HW3 7143   2.075   1.459   3.060 -2.3891 -0.4448  0.6058
 1786SOL    MW4 7144   2.081   1.536   3.100  0.0220 -0.3404  0.1440
 1787SOL     OW 7145   1.840   1.660   2.969 -0.1230 -0.5485  0.2128
 1787SOL    HW2 7146   1.808   1.728   3.028  0.6608  0.6398 -0.7155
 1787SOL    HW3 7147   1.928   1.639   3.001  0.2484 -0.0003 -0.4397
 1787SOL    MW4 7148   1.847   1.666   2.981  0.0294 -0.3194  0.0042
 1788SOL     OW 7149   1.806   1.868   3.159 -0.6279  0.0280  0.5851
 1788SOL    HW2 7150   1.876   1.917   3.115  0.0580 -0.3736  1.2053
 1788SOL    HW3 7151   1.726   1.913   3.134 -0.2476 -0.1050 -0.9684
 1788SOL    MW4 7152   1.805   1.880   3.150 -0.4872 -0.0425  0.4620
 1789SOL     OW 7153   2.027   2.004   3.027 -0.3911  0.1951 -0.2098
 1789SOL    HW2 7154   2.104   1.966   3.070 -1.1805 -0.1265  0.9172
 1789SOL    HW3 7155   2.031   2.097   3.050 -1.3435 -0.1426  1.3882
 1789SOL    MW4 7156   2.038   2.011   3.036 -0.6209  0.1081  0.1497
 1790SOL     OW 7157   2.033   2.275   3.098  0.3026  0.7036 -0.0581
 1790SOL    HW2 7158   2.112   2.326   3.079 -0.7495  2.8875  1.3404
 1790SOL    HW3 7159   1.960   2.333   3.077 -0.9759 -1.1040 -0.7964
 1790SOL    MW4 7160   2.034   2.289   3.093 -0.0049  0.7533  0.0290
 1791SOL     OW 7161   1.820   2.426   3.034 -0.0902 -0.1222 -0.2053
 1791SOL    HW2 7162   1.808   2.511   3.076  1.3896  0.0397 -0.0681
 1791SOL    HW3 7163   1.746   2.374   3.063  0.4428  0.2731  1.9175
 1791SOL    MW4 7164   1.809   2.430   3.043  0.1754 -0.0487  0.0929
 1792SOL     OW 7165   1.799   2.736   3.114  0.0344  0.2664  0.6642
 1792SOL    HW2 7166   1.807   2.737   3.210  1.8739 -1.8611  0.5815
 1792SOL    HW3 7167   1.886   2.760   3.083 -0.7844  1.7558 -0.4841
 1792SOL    MW4 7168   1.811   2.739   3.123  0.1691  0.1822  0.5018
 1793SOL     OW 7169   2.058   2.836   3.038 -0.2548 -0.0652 -0.3595
 1793SOL    HW2 7170   2.035   2.924   3.067  0.1991  0.1038 -0.5009
 1793SOL    HW3 7171   2.053   2.840   2.943 -0.9240 -0.3866 -0.3375
 1793SOL    MW4 7172   2.054   2.848   3.029 -0.2832 -0.0853 -0.3752
 1794SOL     OW 7173   2.009   3.100   3.113 -0.1739 -0.1543 -0.1029
 1794SOL    HW2 7174   2.011   3.101   3.209  0.7715  0.3679 -0.1223
 1794SOL    HW3 7175   1.934   3.154   3.090 -0.7177 -0.7098  0.3527
 1794SOL    MW4 7176   1.999   3.107   3.123 -0.1209 -0.1587 -0.0453
 1795SOL     OW 7177   1.768   3.231   3.010  0.3094  0.2332 -0.1298
 1795SOL    HW2 7178   1.693   3.180   3.041  0.6676 -0.6559 -0.7067
 1795SOL    HW3 7179   1.764   3.225   2.914  1.1128  0.1963 -0.1634
 1795SOL    MW4 7180   1.758   3.224   3.001  0.4627  0.1110 -0.2103
 1796SOL     OW 7181   1.823   3.499   3.122 -0.1559 -0.3823 -0.0908
 1796SOL    HW2 7182   1.809   3.408   3.100 -0.9775 -0.5430  1.0184
 1796SOL    HW3 7183   1.740   3.542   3.104 -0.4609 -0.2862  1.4121
 1796SOL    MW4 7184   1.810   3.493   3.117 -0.3046 -0.3908  0.2539
 1797SOL     OW 7185   2.054   3.599   3.006 -0.0054 -0.5183 -0.2866
 1797SOL    HW2 7186   2.049   3.687   3.044  0.8227 -0.0552 -1.2172
 1797SOL    HW3 7187   1.968   3.561   3.023 -1.3897  1.5138 -2.3529
 1797SOL    MW4 7188   2.042   3.606   3.014 -0.0787 -0.1891 -0.6820
 1798SOL     OW 7189   2.046   3.851   3.125 -0.1763 -0.1953 -0.1715
 1798SOL    HW2 7190   2.034   3.878   3.216  1.5666  1.5604 -0.4372
 1798SOL    HW3 7191   1.990   3.910   3.074  0.8360  0.5414 -0.4443
 1798SOL    MW4 7192   2.037   3.862   3.130  0.1872  0.1335 -0.2426
 1799SOL     OW 7193   1.833   3.994   3.010  0.0827  0.1591  0.3725
 1799SOL    HW2 7194   1.813   4.081   3.045 -0.4791 -0.3399  1.3112
 1799SOL    HW3 7195   1.826   4.004   2.915  0.5049  1.2548  0.4412
 1799SOL    MW4 7196   1.829   4.007   3.002  0.0643  0.2378  0.5054
 1800SOL     OW 7197   1.833   4.273   3.102  0.1908  0.3059 -0.1789
 1800SOL    HW2 7198   1.907   4.328   3.076 -0.2171  1.3032  0.7397
 1800SOL    HW3 7199   1.758   4.312   3.057 -0.4044  1.6153  1.8986
 1800SOL    MW4 7200   1.833   4.286   3.092  0.0585  0.6102  0.2164
 1801SOL     OW 7201   2.103   4.355   2.983 -0.3942  0.0449 -0.5852
 1801SOL    HW2 7202   2.107   4.448   3.004  1.2966  0.2602 -1.7633
 1801SOL    HW3 7203   2.068   4.352   2.894 -0.1590 -0.4188 -0.6628
 1801SOL    MW4 7204   2.099   4.367   2.974 -0.1401  0.0121 -0.7509
 1802SOL     OW 7205   2.493   4.622   3.152  0.0378 -0.3379  0.0479
 1802SOL    HW2 7206   2.502   4.538   3.107  0.4726 -0.8604  1.0790
 1802SOL    HW3 7207   2.415   4.662   3.114 -0.6648 -1.5935  0.1558
 1802SOL    MW4 7208   2.484   4.616   3.141  0.0025 -0.5725  0.1982
 1803SOL     OW 7209   2.277   0.072   3.000 -0.0177  0.0952 -0.0442
 1803SOL    HW2 7210   2.273   0.161   3.036  2.4773 -0.1424  0.8993
 1803SOL    HW3 7211   2.189   0.037   3.015 -0.5357  1.7995  1.1677
 1803SOL    MW4 7212   2.264   0.079   3.007  0.2432  0.2887  0.2402
 1804SOL     OW 7213   2.262   0.356   3.116  0.1979 -0.0992 -0.0058
 1804SOL    HW2 7214   2.252   0.353   3.211  0.4720  0.1996  0.0312
 1804SOL    HW3 7215   2.192   0.414   3.086 -0.5731 -1.0564 -0.0844
 1804SOL    MW4 7216   2.252   0.363   3.125  0.1324 -0.1860 -0.0113
 1805SOL     OW 7217   2.477   0.515   3.038  0.0282  0.3478 -0.3023
 1805SOL    HW2 7218   2.407   0.460   3.075 -1.1024  1.5033 -0.7052
 1805SOL    HW3 7219   2.473   0.498   2.944  1.9800 -1.5133 -0.0831
 1805SOL    MW4 7220   2.467   0.505   3.031  0.1365  0.2547 -0.3265
 1806SOL     OW 7221   2.462   0.771   3.094  0.4616 -0.2469 -0.4977
 1806SOL    HW2 7222   2.552   0.780   3.062  0.5996 -1.1309 -0.3768
 1806SOL    HW3 7223   2.443   0.677   3.086 -0.1365 -0.2010  0.3187
 1806SOL    MW4 7224   2.472   0.760   3.088  0.4009 -0.3575 -0.3740
 1807SOL     OW 7225   2.242   0.881   2.967 -0.1384  0.2712 -0.1046
 1807SOL    HW2 7226   2.315   0.847   3.019 -0.1385  3.5189  2.1253
 1807SOL    HW3 7227   2.163   0.851   3.014 -0.1974  0.3143 -0.1763
 1807SOL    MW4 7228   2.241   0.872   2.980 -0.1462  0.7054  0.1802
 1808SOL     OW 7229   2.247   1.141   3.054 -0.0270  0.0745 -0.0741
 1808SOL    HW2 7230   2.249   1.142   3.150  0.4888 -0.6138 -0.0693
 1808SOL    HW3 7231   2.264   1.050   3.031  0.4466  0.3449 -0.8261
 1808SOL    MW4 7232   2.250   1.129   3.063  0.1036  0.0194 -0.1727
 1809SOL     OW 7233   2.487   1.271   2.946  0.3101 -0.3649 -0.1068
 1809SOL    HW2 7234   2.414   1.214   2.971  0.3852 -0.1012  0.7616
 1809SOL    HW3 7235   2.477   1.285   2.852 -0.0514 -1.3225 -0.2084
 1809SOL    MW4 7236   2.476   1.265   2.937  0.2723 -0.4564 -0.0057
 1810SOL     OW 7237   2.512   1.504   3.105 -0.2771  0.0970  0.4992
 1810SOL    HW2 7238   2.447   1.558   3.061 -0.1026  0.6237  0.8882
 1810SOL    HW3 7239   2.505   1.418   3.062 -1.4592  0.0526  0.7822
 1810SOL    MW4 7240   2.502   1.500   3.093 -0.4101  0.1607  0.5879
 1811SOL     OW 7241   2.320   1.664   2.991 -0.2116 -0.1095 -0.1043
 1811SOL    HW2 7242   2.242   1.619   3.024  0.3353 -0.7960  0.2466
 1811SOL    HW3 7243   2.309   1.664   2.895 -0.5191 -0.4170 -0.0696
 1811SOL    MW4 7244   2.308   1.658   2.982 -0.1800 -0.2407 -0.0535
 1812SOL     OW 7245   2.264   1.918   3.145 -0.1556  0.2929 -0.3178
 1812SOL    HW2 7246   2.350   1.956   3.125 -0.1114  0.1866 -0.3281
 1812SOL    HW3 7247   2.272   1.826   3.120 -0.8292  0.6716 -2.0104
 1812SOL    MW4 7248   2.277   1.911   3.139 -0.2386  0.3288 -0.5425
 1813SOL     OW 7249   2.523   2.022   3.067  0.3311 -0.1045  0.3371
 1813SOL    HW2 7250   2.602   1.974   3.094  0.7637  0.2346 -0.2900
 1813SOL    HW3 7251   2.521   2.012   2.972  0.3812  1.0430  0.2064
 1813SOL    MW4 7252   2.533   2.014   3.058  0.3948  0.0917  0.2371
 1814SOL     OW 7253   2.474   2.288   3.158  0.1200 -0.4697 -0.4956
 1814SOL    HW2 7254   2.463   2.287   3.254  3.1594  1.0797 -0.0737
 1814SOL    HW3 7255   2.480   2.196   3.134  0.0581 -0.8488  0.9029
 1814SOL    MW4 7256   2.473   2.276   3.168  0.5128 -0.3153 -0.2554
 1815SOL     OW 7257   2.264   2.409   3.047  0.5696  0.2660  0.1132
 1815SOL    HW2 7258   2.271   2.502   3.070  0.2525  0.4859 -0.6859
 1815SOL    HW3 7259   2.340   2.369   3.089  1.4514  1.1097 -0.6597
 1815SOL    MW4 7260   2.275   2.416   3.056  0.6441  0.4064 -0.0942
 1816SOL     OW 7261   2.266   2.675   3.150  0.0496  0.1352  0.1304
 1816SOL    HW2 7262   2.349   2.719   3.135  1.0052 -1.6313  0.0411
 1816SOL    HW3 7263   2.200   2.734   3.112  1.5588  0.0838 -2.7437
 1816SOL    MW4 7264   2.268   2.688   3.143  0.3748 -0.1047 -0.2606
 1817SOL     OW 7265   2.474   2.839   3.087 -0.6164  0.1135 -0.4428
 1817SOL    HW2 7266   2.457   2.929   3.115  1.8314  0.4706  0.0137
 1817SOL    HW3 7267   2.481   2.844   2.992 -0.2359  0.4630 -0.3992
 1817SOL    MW4 7268   2.473   2.852   3.078 -0.2432  0.2067 -0.3768
 1818SOL     OW 7269   2.438   3.108   3.125  0.0877 -0.3255 -0.1559
 1818SOL    HW2 7270   2.510   3.140   3.071  0.9294  0.7983  1.5881
 1818SOL    HW3 7271   2.359   3.135   3.078  0.7931  0.7456 -0.7429
 1818SOL    MW4 7272   2.437   3.116   3.111  0.2918 -0.0359 -0.0033
 1819SOL     OW 7273   2.221   3.241   3.018  0.0200 -0.4336 -0.0836
 1819SOL    HW2 7274   2.208   3.323   3.064 -0.8116  0.2847 -1.5599
 1819SOL    HW3 7275   2.150   3.184   3.050 -0.3908 -0.0266 -0.2616
 1819SOL    MW4 7276   2.210   3.244   3.028 -0.1439 -0.2851 -0.3019
 1820SOL     OW 7277   2.233   3.487   3.184  0.1340  0.5365 -0.0885
 1820SOL    HW2 7278   2.321   3.484   3.146 -0.2898 -1.4657 -0.9750
 1820SOL    HW3 7279   2.179   3.530   3.116 -0.2338 -1.3154 -1.0097
 1820SOL    MW4 7280   2.237   3.492   3.170  0.0296  0.0280 -0.3270
 1821SOL     OW 7281   2.464   3.517   3.045  0.4016 -0.3909  0.3521
 1821SOL    HW2 7282   2.539   3.464   3.073 -0.5579 -0.9078  2.0387
 1821SOL    HW3 7283   2.479   3.602   3.085 -0.2865 -0.7232  1.3337
 1821SOL    MW4 7284   2.476   3.521   3.054  0.1842 -0.5030  0.7041
 1822SOL     OW 7285   2.507   3.773   3.167 -0.0180  0.3591 -0.2822
 1822SOL    HW2 7286   2.512   3.790   3.261  1.6523 -2.4406  0.1982
 1822SOL    HW3 7287   2.577   3.825   3.129  1.1229 -0.6877  0.3822
 1822SOL    MW4 7288   2.517   3.782   3.174  0.3529 -0.1484 -0.1312
 1823SOL     OW 7289   2.297   3.949   3.057  0.3333 -0.5518  0.1602
 1823SOL    HW2 7290   2.356   3.879   3.087 -0.5258 -1.5165 -0.3663
 1823SOL    HW3 7291   2.213   3.927   3.097  0.1576  0.4386  0.3446
 1823SOL    MW4 7292   2.294   3.937   3.066  0.1967 -0.5484  0.1150
 1824SOL     OW 7293   2.297   4.217   3.129 -0.4307  0.3554  0.0838
 1824SOL    HW2 7294   2.311   4.125   3.107  0.2759  0.3623  0.4832
 1824SOL    HW3 7295   2.221   4.243   3.078  0.1844 -0.0730 -1.0563
 1824SOL    MW4 7296   2.289   4.208   3.120 -0.2563  0.2998 -0.0139
 1825SOL     OW 7297   2.510   4.396   2.982 -0.0929  0.3417 -0.6290
 1825SOL    HW2 7298   2.437   4.334   2.990 -0.4096  0.7741 -0.1205
 1825SOL    HW3 7299   2.508   4.424   2.891  0.7631 -1.2644 -1.1641
 1825SOL    MW4 7300   2.500   4.392   2.971 -0.0217  0.1869 -0.6325
 1826SOL     OW 7301   2.914   4.635   3.139  0.8732  0.3439  0.0475
 1826SOL    HW2 7302   2.975   4.678   3.079  2.2378  0.1529  1.2790
 1826SOL    HW3 7303   2.917   4.543   3.115 -1.7692  0.8445 -2.3461
 1826SOL    MW4 7304   2.922   4.628   3.128  0.7046  0.3848 -0.1058
 1827SOL     OW 7305   2.696   0.083   3.023 -0.0795 -0.2084  0.0852
 1827SOL    HW2 7306   2.780   0.055   3.061  0.3555  0.2715 -0.5128
 1827SOL    HW3 7307   2.631   0.031   3.069  0.6425 -1.5247 -0.3456
 1827SOL    MW4 7308   2.699   0.072   3.034  0.0731 -0.3187 -0.0505
 1828SOL     OW 7309   2.674   0.341   3.131  0.0904 -0.0510 -0.8229
 1828SOL    HW2 7310   2.661   0.257   3.088 -0.8773 -0.4968  0.2954
 1828SOL    HW3 7311   2.611   0.400   3.088 -0.3094 -0.2919 -0.5733
 1828SOL    MW4 7312   2.664   0.338   3.120 -0.0900 -0.1416 -0.6424
 1829SOL     OW 7313   2.901   0.449   3.044  0.1178  0.1969  0.0062
 1829SOL    HW2 7314   2.821   0.408   3.078  1.0080 -0.9479  0.7332
 1829SOL    HW3 7315   2.903   0.424   2.952  0.0173 -0.3836  0.1594
 1829SOL    MW4 7316   2.890   0.441   3.036  0.2220 -0.0307  0.1223
 1830SOL     OW 7317   2.957   0.698   3.118  0.5091 -0.3475 -0.6788
 1830SOL    HW2 7318   2.940   0.704   3.212  0.2938  1.5456 -0.8358
 1830SOL    HW3 7319   2.930   0.609   3.095 -2.5988  0.2474  0.4293
 1830SOL    MW4 7320   2.951   0.687   3.127  0.0706 -0.0193 -0.5533
 1831SOL     OW 7321   2.721   0.830   3.032  0.2835 -0.0309 -0.5216
 1831SOL    HW2 7322   2.732   0.924   3.045  0.3437 -0.0420 -0.4939
 1831SOL    HW3 7323   2.799   0.791   3.070 -0.6447 -0.2250  1.2037
 1831SOL    MW4 7324   2.733   0.837   3.039  0.1690 -0.0580 -0.2903
 1832SOL     OW 7325   2.707   1.122   3.059  0.0530  0.0453 -0.0687
 1832SOL    HW2 7326   2.784   1.178   3.047 -0.3347  0.5247 -0.3796
 1832SOL    HW3 7327   2.640   1.162   3.003 -0.7803  0.3365  1.1240
 1832SOL    MW4 7328   2.708   1.135   3.050 -0.1081  0.1470  0.0476
 1833SOL     OW 7329   2.979   1.259   2.988 -0.1307  0.3447 -0.0822
 1833SOL    HW2 7330   3.048   1.212   3.034  0.4453  0.7423 -0.5269
 1833SOL    HW3 7331   2.986   1.349   3.020  0.3044  0.6320 -0.9716
 1833SOL    MW4 7332   2.989   1.265   2.998  0.0027  0.4351 -0.2583
 1834SOL     OW 7333   2.938   1.534   3.080 -0.3475 -0.4538 -0.5920
 1834SOL    HW2 7334   2.913   1.516   3.170  0.4563 -1.6358 -0.6039
 1834SOL    HW3 7335   3.010   1.597   3.087 -2.7674  2.4056 -0.5390
 1834SOL    MW4 7336   2.944   1.540   3.093 -0.5607 -0.2325 -0.5866
 1835SOL     OW 7337   2.720   1.633   2.962 -0.0255  0.3577 -0.0953
 1835SOL    HW2 7338   2.800   1.604   3.005 -0.7379 -2.5296 -0.6528
 1835SOL    HW3 7339   2.651   1.582   3.002 -1.4697  2.0125 -0.4251
 1835SOL    MW4 7340   2.722   1.623   2.973 -0.3101  0.1951 -0.2124
 1836SOL     OW 7341   2.735   1.853   3.126  0.0722 -0.3942 -0.3556
 1836SOL    HW2 7342   2.804   1.908   3.088  0.4517 -1.3049 -1.0168
 1836SOL    HW3 7343   2.722   1.784   3.061 -4.1166  1.8114 -2.0032
 1836SOL    MW4 7344   2.743   1.851   3.112 -0.4304 -0.2233 -0.6603
 1837SOL     OW 7345   2.928   2.033   2.996  0.2690  0.0930  0.3027
 1837SOL    HW2 7346   2.909   2.120   3.029 -1.9774 -0.4012  0.3595
 1837SOL    HW3 7347   2.940   2.045   2.902  1.0941  0.6173  0.4668
 1837SOL    MW4 7348   2.927   2.046   2.988  0.0815  0.0969  0.3318
 1838SOL     OW 7349   2.898   2.298   3.107  0.0207  0.4349  0.3991
 1838SOL    HW2 7350   2.972   2.348   3.073  0.1548  0.2770  0.4549
 1838SOL    HW3 7351   2.820   2.342   3.073  0.1493  0.3703  0.0226
 1838SOL    MW4 7352   2.897   2.310   3.098  0.0554  0.4055  0.3568
 1839SOL     OW 7353   2.663   2.435   3.033  0.1351 -0.2475 -0.5543
 1839SOL    HW2 7354   2.680   2.513   3.086 -0.5953  0.2267 -0.9960
 1839SOL    HW3 7355   2.584   2.397   3.071 -0.1179 -0.1739 -1.0030
 1839SOL    MW4 7356   2.655   2.440   3.045  0.0053 -0.1752 -0.6718
 1840SOL     OW 7357   2.726   2.679   3.140  0.4061 -0.2734 -0.2093
 1840SOL    HW2 7358   2.741   2.674   3.235 -0.6111 -0.5875 -0.0659
 1840SOL    HW3 7359   2.652   2.739   3.130  0.7388  0.0361 -0.8320
 1840SOL    MW4 7360   2.719   2.686   3.151  0.3158 -0.2740 -0.2725
 1841SOL     OW 7361   2.937   2.762   2.991 -0.0220  0.4458 -0.0902
 1841SOL    HW2 7362   3.011   2.730   3.042 -0.7799  0.6858  1.1796
 1841SOL    HW3 7363   2.860   2.741   3.044 -0.9673 -0.7410 -1.8645
 1841SOL    MW4 7364   2.936   2.755   3.005 -0.2467  0.3209 -0.1568
 1842SOL     OW 7365   2.932   3.006   3.109 -0.3020 -0.1033 -0.2933
 1842SOL    HW2 7366   2.854   3.051   3.076  0.0997  0.6857 -0.1585
 1842SOL    HW3 7367   2.940   2.928   3.053  0.3189  1.1808 -2.0232
 1842SOL    MW4 7368   2.923   3.001   3.097 -0.1671  0.1702 -0.5037
 1843SOL     OW 7369   2.702   3.134   2.991 -0.0748 -0.1396  0.0459
 1843SOL    HW2 7370   2.731   3.210   3.041 -0.0157 -0.7588  0.9644
 1843SOL    HW3 7371   2.703   3.163   2.900  3.7668 -0.2112 -0.0406
 1843SOL    MW4 7372   2.706   3.148   2.986  0.4399 -0.2308  0.1556
 1844SOL     OW 7373   2.718   3.406   3.102 -0.0876 -0.1855  0.3050
 1844SOL    HW2 7374   2.720   3.420   3.197 -1.1887 -1.3633  0.5194
 1844SOL    HW3 7375   2.794   3.453   3.069  0.7370 -0.3868  1.8597
 1844SOL    MW4 7376   2.728   3.414   3.110 -0.1240 -0.3675  0.5384
 1845SOL     OW 7377   2.945   3.567   3.005  0.2622 -0.2259  0.7838
 1845SOL    HW2 7378   3.023   3.519   3.032  0.7812 -0.1102 -0.4766
 1845SOL    HW3 7379   2.948   3.649   3.055  0.4454 -0.6224  1.4247
 1845SOL    MW4 7380   2.955   3.572   3.015  0.3549 -0.2630  0.7021
 1846SOL     OW 7381   2.989   3.820   3.132  0.4699  0.2319 -0.1985
 1846SOL    HW2 7382   2.957   3.810   3.222  0.5235 -0.3616 -0.2384
 1846SOL    HW3 7383   2.919   3.866   3.087  0.8537  1.3952  0.3743
 1846SOL    MW4 7384   2.975   3.824   3.138  0.5276  0.3071 -0.1282
 1847SOL     OW 7385   2.714   3.933   3.026  0.3750  0.3080  0.5375
 1847SOL    HW2 7386   2.707   4.028   3.031  0.8125  0.4049 -0.5483
 1847SOL    HW3 7387   2.706   3.913   2.933 -0.4070 -0.7793  0.8289
 1847SOL    MW4 7388   2.712   3.943   3.015  0.3295  0.1774  0.4327
 1848SOL     OW 7389   2.691   4.218   3.096 -0.0021 -0.1522 -0.3577
 1848SOL    HW2 7390   2.692   4.218   3.192  0.0449 -1.1205 -0.3472
 1848SOL    HW3 7391   2.622   4.280   3.073 -0.8906 -0.8579  0.3406
 1848SOL    MW4 7392   2.682   4.226   3.106 -0.1132 -0.3731 -0.2642
 1849SOL     OW 7393   2.925   4.365   3.048  0.3289  0.1858  0.3932
 1849SOL    HW2 7394   2.995   4.314   3.089 -0.6923 -1.4713  0.1323
 1849SOL    HW3 7395   2.847   4.309   3.055 -0.3327  0.7351 -1.9155
 1849SOL    MW4 7396   2.924   4.351   3.054  0.1069  0.0396  0.0541
 1850SOL     OW 7397   3.362   4.633   3.085 -0.4117 -0.1902 -0.1904
 1850SOL    HW2 7398   3.451   4.668   3.079 -0.1353 -0.9659 -0.7697
 1850SOL    HW3 7399   3.371   4.541   3.060 -1.4344 -0.1958 -0.5671
 1850SOL    MW4 7400   3.375   4.625   3.081 -0.5101 -0.2933 -0.3166
 1851SOL     OW 7401   3.122   0.086   2.992  0.4411 -0.1441  0.2706
 1851SOL    HW2 7402   3.131   0.175   3.025  0.8119  0.0487 -0.3423
 1851SOL    HW3 7403   3.206   0.045   3.009  0.5361 -0.1333 -0.1556
 1851SOL    MW4 7404   3.134   0.093   2.998  0.5026 -0.1172  0.1335
 1852SOL     OW 7405   3.149   0.356   3.084 -0.6830 -0.4365  0.1401
 1852SOL    HW2 7406   3.216   0.422   3.067 -0.4996 -1.0428 -1.6013
 1852SOL    HW3 7407   3.066   0.404   3.076 -0.5191 -0.1415  0.1980
 1852SOL    MW4 7408   3.147   0.371   3.080 -0.6372 -0.4776 -0.0820
 1853SOL     OW 7409   3.366   0.511   3.023 -0.1271  0.0649  0.6769
 1853SOL    HW2 7410   3.438   0.451   3.041  0.4613  0.8164  0.8460
 1853SOL    HW3 7411   3.368   0.522   2.927 -1.6977 -1.9908  0.3889
 1853SOL    MW4 7412   3.376   0.505   3.013 -0.2567 -0.1072  0.6612
 1854SOL     OW 7413   3.392   0.750   3.151  0.0251 -0.1031  0.1475
 1854SOL    HW2 7414   3.388   0.736   3.245 -0.5613 -1.0528 -0.0142
 1854SOL    HW3 7415   3.383   0.663   3.113  0.0292  0.2969 -0.7913
 1854SOL    MW4 7416   3.390   0.737   3.158 -0.0517 -0.1756  0.0023
 1855SOL     OW 7417   3.158   0.883   3.045 -0.1331 -0.3703 -0.2680
 1855SOL    HW2 7418   3.230   0.844   3.095  0.4659  0.2286 -0.6486
 1855SOL    HW3 7419   3.081   0.830   3.067  0.5142 -1.2777 -0.1885
 1855SOL    MW4 7420   3.157   0.871   3.055  0.0313 -0.4110 -0.3077
 1856SOL     OW 7421   3.192   1.142   3.112  0.0420 -0.3405  0.1678
 1856SOL    HW2 7422   3.267   1.182   3.068 -2.1415  1.0691 -2.4024
 1856SOL    HW3 7423   3.195   1.050   3.087  0.9695 -0.3118  0.1727
 1856SOL    MW4 7424   3.202   1.135   3.103 -0.1237 -0.1507 -0.1707
 1857SOL     OW 7425   3.404   1.282   2.980  0.2458 -0.2859 -0.6562
 1857SOL    HW2 7426   3.487   1.267   3.025  0.8024  1.2262 -1.1139
 1857SOL    HW3 7427   3.377   1.370   3.009 -2.2124 -1.5457  1.0185
 1857SOL    MW4 7428   3.412   1.292   2.989 -0.0051 -0.2526 -0.4956
 1858SOL     OW 7429   3.375   1.531   3.092 -0.1223 -0.2024 -0.2419
 1858SOL    HW2 7430   3.384   1.511   3.185  2.0483  1.6208 -0.0328
 1858SOL    HW3 7431   3.458   1.571   3.068 -1.0403  0.2580 -2.7434
 1858SOL    MW4 7432   3.387   1.533   3.101  0.0430  0.0989 -0.5444
 1859SOL     OW 7433   3.148   1.685   3.025  0.0700  0.2772  0.0607
 1859SOL    HW2 7434   3.228   1.641   3.055  0.5075  0.0969 -1.3602
 1859SOL    HW3 7435   3.144   1.667   2.932 -0.0977  2.6765 -0.4361
 1859SOL    MW4 7436   3.158   1.677   3.017  0.1056  0.5700 -0.1923
 1860SOL     OW 7437   3.105   1.934   3.161 -0.1825  0.5024 -0.6016
 1860SOL    HW2 7438   3.113   1.846   3.123 -0.1704  0.2670 -0.0565
 1860SOL    HW3 7439   3.048   1.981   3.100 -0.0929  0.1548 -0.9590
 1860SOL    MW4 7440   3.099   1.928   3.148 -0.1691  0.4255 -0.5768
 1861SOL     OW 7441   3.328   2.005   2.994 -0.0720  0.1967  0.5424
 1861SOL    HW2 7442   3.402   1.953   3.024 -0.0214 -1.1528 -1.8096
 1861SOL    HW3 7443   3.255   1.977   3.049  0.6015 -0.2360  1.2244
 1861SOL    MW4 7444   3.328   1.995   3.005  0.0235 -0.0384  0.3221
 1862SOL     OW 7445   3.356   2.275   3.117  0.0184  0.3505 -0.6901
 1862SOL    HW2 7446   3.372   2.253   3.209  0.6910  0.5312 -0.7672
 1862SOL    HW3 7447   3.358   2.190   3.072  1.3947  0.4319 -0.7987
 1862SOL    MW4 7448   3.358   2.261   3.123  0.2887  0.3851 -0.7146
 1863SOL     OW 7449   3.126   2.418   3.023  0.2580  0.5528 -0.1483
 1863SOL    HW2 7450   3.205   2.367   3.039 -0.5018 -0.2230  1.1699
 1863SOL    HW3 7451   3.120   2.422   2.927  1.6903  0.3158 -0.2613
 1863SOL    MW4 7452   3.136   2.412   3.012  0.3467  0.4192  0.0107
 1864SOL     OW 7453   3.159   2.676   3.120 -0.1431 -0.0522 -0.2543
 1864SOL    HW2 7454   3.142   2.668   3.214  0.1184  0.5480 -0.1534
 1864SOL    HW3 7455   3.162   2.585   3.088 -1.4576 -0.2311  0.0904
 1864SOL    MW4 7456   3.157   2.663   3.128 -0.2821  0.0034 -0.1955
 1865SOL     OW 7457   3.403   2.793   3.011  0.1957  0.0882  0.0392
 1865SOL    HW2 7458   3.414   2.880   3.050  2.3547 -1.0067  1.9941
 1865SOL    HW3 7459   3.328   2.755   3.057  0.6857  0.0507  0.8069
 1865SOL    MW4 7460   3.395   2.799   3.022  0.5452 -0.0612  0.3984
 1866SOL     OW 7461   3.436   3.039   3.119  0.4472  0.2240 -0.2196
 1866SOL    HW2 7462   3.419   3.043   3.214 -0.0538  0.5916 -0.3213
 1866SOL    HW3 7463   3.355   3.072   3.079  0.0427 -1.4565 -0.8359
 1866SOL    MW4 7464   3.423   3.044   3.127  0.3277  0.0508 -0.3144
 1867SOL     OW 7465   3.204   3.123   3.007 -0.2954  0.2247 -0.0512
 1867SOL    HW2 7466   3.131   3.075   3.046 -0.0869  0.6894  0.9465
 1867SOL    HW3 7467   3.177   3.139   2.917 -1.8280  1.1699  0.5488
 1867SOL    MW4 7468   3.191   3.119   3.000 -0.4701  0.4107  0.1596
 1868SOL     OW 7469   3.153   3.395   3.102  0.1725  0.0968 -0.0794
 1868SOL    HW2 7470   3.222   3.453   3.069 -0.5342 -0.0536 -1.8477
 1868SOL    HW3 7471   3.172   3.310   3.063  0.2409 -0.4900  1.1892
 1868SOL    MW4 7472   3.165   3.391   3.093  0.0883 -0.0005 -0.1453
 1869SOL     OW 7473   3.370   3.553   3.027 -0.2952 -0.1090  0.0738
 1869SOL    HW2 7474   3.452   3.518   3.063 -0.4263 -0.3860  0.1058
 1869SOL    HW3 7475   3.373   3.647   3.048 -0.2276 -0.2147  0.5400
 1869SOL    MW4 7476   3.381   3.561   3.035 -0.3036 -0.1595  0.1395
 1870SOL     OW 7477   3.405   3.820   3.094 -0.9452 -0.5917  0.3386
 1870SOL    HW2 7478   3.413   3.827   3.189 -0.6829  1.3095  0.1857
 1870SOL    HW3 7479   3.343   3.888   3.070 -2.2674 -2.1422 -0.6894
 1870SOL    MW4 7480   3.398   3.830   3.103 -1.0850 -0.5454  0.1828
 1871SOL     OW 7481   3.195   3.980   3.014 -0.1767 -0.1634 -0.0671
 1871SOL    HW2 7482   3.132   3.923   3.058 -0.4966  0.3394  0.1255
 1871SOL    HW3 7483   3.177   3.967   2.921  0.7490 -1.5110 -0.0704
 1871SOL    MW4 7484   3.184   3.971   3.007 -0.0968 -0.2749 -0.0421
 1872SOL     OW 7485   3.175   4.245   3.132  0.2155  0.4140 -0.1566
 1872SOL    HW2 7486   3.174   4.239   3.227 -1.1900  0.4210 -0.1558
 1872SOL    HW3 7487   3.189   4.155   3.102  1.5790  0.5507  0.0646
 1872SOL    MW4 7488   3.177   4.232   3.141  0.2100  0.4330 -0.1273
 1873SOL     OW 7489   3.376   4.365   2.976 -0.0381 -0.0016  0.0593
 1873SOL    HW2 7490   3.435   4.301   3.017 -0.0988 -1.0035 -1.3686
 1873SOL    HW3 7491   3.295   4.358   3.027  0.1208 -0.6956  0.2281
 1873SOL    MW4 7492   3.373   4.356   2.989 -0.0251 -0.2254 -0.1069
 1874SOL     OW 7493   3.838   4.622   3.096 -0.0684 -0.1514 -0.3076
 1874SOL    HW2 7494   3.845   4.527   3.083 -0.6714 -0.1536 -0.6317
 1874SOL    HW3 7495   3.746   4.642   3.077  0.0257  0.4773 -0.1040
 1874SOL    MW4 7496   3.827   4.612   3.091 -0.1356 -0.0688 -0.3235
 1875SOL     OW 7497   3.597   0.085   3.005  0.0158  0.5233  0.3520
 1875SOL    HW2 7498   3.604   0.176   3.034 -1.4772  0.3888  1.1456
 1875SOL    HW3 7499   3.606   0.089   2.910  0.3887  1.4527  0.4253
 1875SOL    MW4 7500   3.599   0.097   2.996 -0.1320  0.6282  0.4664
 1876SOL     OW 7501   3.579   0.348   3.085 -0.0950 -0.3538 -0.3970
 1876SOL    HW2 7502   3.609   0.349   3.176 -1.8827  1.1112  0.2064
 1876SOL    HW3 7503   3.658   0.369   3.035  0.1514  2.7007  1.1148
 1876SOL    MW4 7504   3.594   0.351   3.091 -0.2983  0.2425 -0.1180
 1877SOL     OW 7505   3.832   0.454   3.049  0.0084  0.0209 -0.1133
 1877SOL    HW2 7506   3.896   0.411   3.105 -0.6799 -1.0428 -0.1339
 1877SOL    HW3 7507   3.847   0.548   3.063  0.7156 -0.2271  0.8339
 1877SOL    MW4 7508   3.843   0.461   3.058  0.0109 -0.1522  0.0089
 1878SOL     OW 7509   3.849   0.719   3.133 -0.5569  0.2896 -0.0152
 1878SOL    HW2 7510   3.852   0.740   3.226 -0.3956 -0.9276  0.2637
 1878SOL    HW3 7511   3.908   0.783   3.092 -0.1294  0.4216  0.7871
 1878SOL    MW4 7512   3.857   0.730   3.140 -0.4792  0.1464  0.1274
 1879SOL     OW 7513   3.614   0.874   3.033  0.0034 -0.0201  0.1448
 1879SOL    HW2 7514   3.686   0.813   3.052 -0.5516 -0.9694 -0.7363
 1879SOL    HW3 7515   3.537   0.830   3.068 -0.5969 -0.4296 -1.6671
 1879SOL    MW4 7516   3.614   0.860   3.040 -0.1490 -0.1994 -0.2105
 1880SOL     OW 7517   3.608   1.148   3.106 -0.1171 -0.0725  0.0099
 1880SOL    HW2 7518   3.689   1.190   3.077 -0.4305  0.1964 -0.4902
 1880SOL    HW3 7519   3.618   1.057   3.080  0.2699 -0.1557  0.4635
 1880SOL    MW4 7520   3.620   1.142   3.098 -0.1074 -0.0480  0.0038
 1881SOL     OW 7521   3.814   1.293   3.006 -0.0131 -0.0862  0.1738
 1881SOL    HW2 7522   3.817   1.377   3.052 -0.3652 -0.6439  1.2229
 1881SOL    HW3 7523   3.820   1.316   2.913  0.3180  1.0690  0.4766
 1881SOL    MW4 7524   3.815   1.307   3.000 -0.0159 -0.0073  0.3522
 1882SOL     OW 7525   3.858   1.545   3.109 -0.3363 -0.2442  0.4402
 1882SOL    HW2 7526   3.859   1.558   3.204 -0.9106  0.9274  0.2913
 1882SOL    HW3 7527   3.774   1.582   3.081  0.0590 -0.1258 -0.5908
 1882SOL    MW4 7528   3.847   1.552   3.118 -0.3599 -0.0740  0.2846
 1883SOL     OW 7529   3.610   1.635   3.023  1.2282  0.1673  0.1881
 1883SOL    HW2 7530   3.583   1.718   3.063 -2.1536 -1.2801  1.0033
 1883SOL    HW3 7531   3.596   1.647   2.930 -0.3963  0.1084  0.4212
 1883SOL    MW4 7532   3.605   1.648   3.016  0.5677 -0.0314  0.3264
 1884SOL     OW 7533   3.552   1.887   3.111 -0.0295  0.1876  0.0310
 1884SOL    HW2 7534   3.580   1.886   3.202 -0.2418 -1.4714  0.0931
 1884SOL    HW3 7535   3.628   1.921   3.063  0.9786 -1.3032  0.5519
 1884SOL    MW4 7536   3.566   1.892   3.116  0.0755 -0.2280  0.1079
 1885SOL     OW 7537   3.802   2.019   3.051 -0.2468  0.9011  0.0607
 1885SOL    HW2 7538   3.807   2.102   3.098  1.1429 -0.1355  1.8416
 1885SOL    HW3 7539   3.821   2.041   2.960 -0.3011  2.5776  0.4395
 1885SOL    MW4 7540   3.805   2.033   3.045 -0.0706  0.9855  0.3456
 1886SOL     OW 7541   3.836   2.280   3.166  0.1163 -0.2041 -0.3772
 1886SOL    HW2 7542   3.812   2.291   3.258 -0.0229  0.7058 -0.5189
 1886SOL    HW3 7543   3.758   2.308   3.118  0.9050  1.2646 -0.8151
 1886SOL    MW4 7544   3.822   2.285   3.171  0.2020  0.1097 -0.4537
 1887SOL     OW 7545   3.623   2.399   3.027 -0.3188 -0.0664  0.1791
 1887SOL    HW2 7546   3.643   2.486   3.062 -1.4287 -0.3669  1.6033
 1887SOL    HW3 7547   3.529   2.389   3.039  0.1235 -2.3312  2.1291
 1887SOL    MW4 7548   3.613   2.409   3.034 -0.4069 -0.4049  0.6243
 1888SOL     OW 7549   3.622   2.654   3.139 -0.5257 -0.0115  0.0322
 1888SOL    HW2 7550   3.699   2.708   3.122 -0.3265 -1.0261 -2.6367
 1888SOL    HW3 7551   3.550   2.703   3.100 -1.1775  0.6980  2.0897
 1888SOL    MW4 7552   3.623   2.667   3.132 -0.5854 -0.0517 -0.0485
 1889SOL     OW 7553   3.859   2.800   3.065 -0.2180  0.1135 -0.4582
 1889SOL    HW2 7554   3.848   2.889   3.099  3.5423  0.8960 -1.0718
 1889SOL    HW3 7555   3.867   2.812   2.970  0.0083 -0.9214 -0.5746
 1889SOL    MW4 7556   3.859   2.813   3.057  0.3079  0.0802 -0.5545
 1890SOL     OW 7557   3.831   3.057   3.135 -0.0427 -0.2546 -0.3463
 1890SOL    HW2 7558   3.905   3.110   3.108 -0.3358  0.8258  0.9446
 1890SOL    HW3 7559   3.754   3.106   3.107 -0.3087 -0.2416  0.3973
 1890SOL    MW4 7560   3.830   3.070   3.128 -0.1165 -0.1103 -0.0779
 1891SOL     OW 7561   3.630   3.210   3.025 -0.6847 -0.6811  0.0746
 1891SOL    HW2 7562   3.561   3.156   3.065 -1.3988  0.8941  1.0338
 1891SOL    HW3 7563   3.610   3.210   2.932 -1.9629 -0.2917  0.3414
 1891SOL    MW4 7564   3.618   3.203   3.018 -0.9476 -0.4219  0.2364
 1892SOL     OW 7565   3.628   3.487   3.129  0.0390 -0.1067  0.2225
 1892SOL    HW2 7566   3.706   3.517   3.083 -0.0233  0.2697  0.3582
 1892SOL    HW3 7567   3.629   3.392   3.119 -0.1717  0.0035 -0.8679
 1892SOL    MW4 7568   3.638   3.479   3.122  0.0030 -0.0425  0.0966
 1893SOL     OW 7569   3.854   3.555   2.989  0.2175 -0.0812 -0.4803
 1893SOL    HW2 7570   3.851   3.642   3.029  1.9133 -0.5852  0.7959
 1893SOL    HW3 7571   3.866   3.572   2.896 -1.2789  1.0785 -0.4864
 1893SOL    MW4 7572   3.855   3.569   2.982  0.2438  0.0053 -0.3128
 1894SOL     OW 7573   3.862   3.811   3.120 -0.0002  0.2790 -0.2276
 1894SOL    HW2 7574   3.865   3.805   3.216 -0.0294 -0.2875 -0.2567
 1894SOL    HW3 7575   3.775   3.847   3.101 -0.9967 -1.9769 -0.1327
 1894SOL    MW4 7576   3.851   3.815   3.130 -0.1355 -0.0934 -0.2189
 1895SOL     OW 7577   3.639   3.962   3.015  0.1955 -0.3584  0.4188
 1895SOL    HW2 7578   3.576   3.898   3.048  0.0411 -0.3315  0.1762
 1895SOL    HW3 7579   3.620   3.968   2.922  0.6797 -0.4863  0.3124
 1895SOL    MW4 7580   3.628   3.954   3.007  0.2390 -0.3717  0.3728
 1896SOL     OW 7581   3.601   4.216   3.090  0.4038 -0.4440 -0.2892
 1896SOL    HW2 7582   3.680   4.256   3.054  0.7993  0.6562  1.7238
 1896SOL    HW3 7583   3.609   4.123   3.069  1.5003 -0.1156 -1.3938
 1896SOL    MW4 7584   3.612   4.209   3.083  0.6007 -0.2555 -0.1693
 1897SOL     OW 7585   3.829   4.374   3.012 -0.1383  0.6302 -0.5433
 1897SOL    HW2 7586   3.899   4.320   3.048  0.1307  0.6062 -1.0992
 1897SOL    HW3 7587   3.842   4.371   2.917 -1.6251 -0.3703 -0.7430
 1897SOL    MW4 7588   3.840   4.367   3.004 -0.2990  0.4950 -0.6430
 1898SOL     OW 7589   4.257   4.666   3.099  0.0612  0.0999 -0.1270
 1898SOL    HW2 7590   4.260   4.663   3.194  1.1829 -0.0009 -0.1540
 1898SOL    HW3 7591   4.266   4.574   3.072 -0.3387  0.1195 -0.3283
 1898SOL    MW4 7592   4.259   4.653   3.108  0.1564  0.0892 -0.1571
 1899SOL     OW 7593   4.035   0.113   3.000 -0.0104  0.0515  0.1244
 1899SOL    HW2 7594   4.116   0.081   3.039 -0.9411 -0.5491  1.6232
 1899SOL    HW3 7595   3.969   0.048   3.026 -1.1465  1.0296 -0.2833
 1899SOL    MW4 7596   4.037   0.100   3.008 -0.2831  0.1013  0.2684
 1900SOL     OW 7597   4.039   0.327   3.169 -0.1948 -0.6289 -0.1856
 1900SOL    HW2 7598   4.098   0.392   3.131 -0.2822 -0.4592 -0.0338
 1900SOL    HW3 7599   4.046   0.251   3.112  0.1742 -0.6083 -0.1673
 1900SOL    MW4 7600   4.048   0.326   3.157 -0.1576 -0.6038 -0.1632
 1901SOL     OW 7601   4.225   0.500   3.035  0.2466  0.1350  0.1680
 1901SOL    HW2 7602   4.232   0.591   3.066  0.1603  0.1342  0.1906
 1901SOL    HW3 7603   4.243   0.505   2.941  0.0553  0.2020  0.1353
 1901SOL    MW4 7604   4.228   0.513   3.027  0.2100  0.1437  0.1667
 1902SOL     OW 7605   4.267   0.743   3.139 -0.5136 -0.0427 -0.0179
 1902SOL    HW2 7606   4.181   0.779   3.116  0.0267  1.2343 -0.0590
 1902SOL    HW3 7607   4.329   0.810   3.112  0.3922 -0.2727  1.4319
 1902SOL    MW4 7608   4.264   0.757   3.132 -0.3228  0.0955  0.1679
 1903SOL     OW 7609   4.044   0.904   3.038 -0.0525 -0.0448 -0.2586
 1903SOL    HW2 7610   4.041   0.996   3.065 -1.3024 -0.1204 -0.0825
 1903SOL    HW3 7611   4.041   0.907   2.943 -1.3676  0.0774 -0.2279
 1903SOL    MW4 7612   4.043   0.917   3.029 -0.3910 -0.0387 -0.2313
 1904SOL     OW 7613   4.033   1.161   3.122  0.5069  0.4484 -0.5166
 1904SOL    HW2 7614   4.018   1.147   3.215 -0.1022  0.0714 -0.6682
 1904SOL    HW3 7615   3.956   1.209   3.092 -0.7886 -2.1300 -1.4525
 1904SOL    MW4 7616   4.021   1.166   3.130  0.2556  0.0585 -0.6601
 1905SOL     OW 7617   4.248   1.293   3.046 -0.0623  0.1225  0.4725
 1905SOL    HW2 7618   4.169   1.243   3.067  0.6600 -0.7640  1.0605
 1905SOL    HW3 7619   4.251   1.293   2.950 -0.8854  0.3400  0.4386
 1905SOL    MW4 7620   4.238   1.287   3.036 -0.0756  0.0342  0.5456
 1906SOL     OW 7621   4.316   1.549   3.148  0.1976  0.4905  0.0543
 1906SOL    HW2 7622   4.233   1.588   3.119 -0.2698 -0.6465 -0.1700
 1906SOL    HW3 7623   4.317   1.462   3.107  0.8765 -0.0207  1.1423
 1906SOL    MW4 7624   4.305   1.542   3.139  0.2255  0.2730  0.1683
 1907SOL     OW 7625   4.083   1.683   3.061  0.2106  0.3227 -0.0128
 1907SOL    HW2 7626   4.062   1.768   3.100 -0.1963  0.8329 -1.3268
 1907SOL    HW3 7627   4.010   1.626   3.087  0.2424  0.4974  0.4654
 1907SOL    MW4 7628   4.071   1.686   3.069  0.1611  0.4130 -0.1231
 1908SOL     OW 7629   4.030   1.932   3.168  0.3558  0.0292 -0.0075
 1908SOL    HW2 7630   4.102   1.972   3.119 -0.5048  1.9476  0.2678
 1908SOL    HW3 7631   3.951   1.959   3.122 -0.2289 -1.9258 -0.2039
 1908SOL    MW4 7632   4.029   1.941   3.156  0.1651  0.0244  0.0029
 1909SOL     OW 7633   4.225   2.073   3.012 -0.7900 -0.2669  0.5352
 1909SOL    HW2 7634   4.256   2.156   3.049 -0.3160 -0.2677  0.1413
 1909SOL    HW3 7635   4.221   2.089   2.918  3.1837 -1.9042 -0.0141
 1909SOL    MW4 7636   4.228   2.086   3.005 -0.2032 -0.4831  0.4108
 1910SOL     OW 7637   4.288   2.296   3.147 -0.2927  0.2913  0.0235
 1910SOL    HW2 7638   4.209   2.339   3.113 -0.1637  0.4895 -0.0276
 1910SOL    HW3 7639   4.359   2.334   3.095 -0.1188  0.4181  0.3587
 1910SOL    MW4 7640   4.287   2.307   3.135 -0.2527  0.3342  0.0610
 1911SOL     OW 7641   4.075   2.392   3.027 -0.5625  0.1586 -0.1911
 1911SOL    HW2 7642   4.055   2.482   3.052  0.6198  1.2582 -3.0275
 1911SOL    HW3 7643   4.003   2.340   3.063 -1.5614  2.3034  0.9781
 1911SOL    MW4 7644   4.063   2.397   3.035 -0.5383  0.5867 -0.4111
 1912SOL     OW 7645   4.089   2.668   3.124  0.0146  0.5336 -0.0096
 1912SOL    HW2 7646   4.098   2.667   3.220  0.8146  0.2071 -0.0923
 1912SOL    HW3 7647   4.016   2.729   3.108 -0.0969  0.6191  0.8017
 1912SOL    MW4 7648   4.080   2.676   3.135  0.1054  0.5018  0.0865
 1913SOL     OW 7649   4.296   2.805   3.040  0.1342  0.0727 -0.1873
 1913SOL    HW2 7650   4.230   2.752   3.084  0.1688  0.4896  0.3703
 1913SOL    HW3 7651   4.380   2.768   3.068  0.1490  0.0703 -0.2338
 1913SOL    MW4 7652   4.298   2.793   3.050  0.1407  0.1274 -0.1198
 1914SOL     OW 7653   4.298   3.074   3.141  0.7006 -0.2092 -0.0709
 1914SOL    HW2 7654   4.217   3.111   3.108  0.5914  0.3893  0.8532
 1914SOL    HW3 7655   4.296   2.982   3.113  0.4947  0.2185 -1.4727
 1914SOL    MW4 7656   4.287   3.066   3.133  0.6590 -0.0738 -0.1339
 1915SOL     OW 7657   4.056   3.205   3.051 -0.1643  0.3462  0.3402
 1915SOL    HW2 7658   4.053   3.293   3.087  2.6169  1.1989 -1.3455
 1915SOL    HW3 7659   4.049   3.218   2.956 -1.9584 -1.4256  0.2027
 1915SOL    MW4 7660   4.055   3.218   3.043 -0.0340  0.2250  0.0996
 1916SOL     OW 7661   4.083   3.463   3.134 -0.2441  0.1075 -0.4933
 1916SOL    HW2 7662   4.077   3.458   3.229 -0.0502  0.2735 -0.4708
 1916SOL    HW3 7663   3.994   3.483   3.105 -0.2721  0.2077 -0.3369
 1916SOL    MW4 7664   4.071   3.465   3.142 -0.2223  0.1426 -0.4697
 1917SOL     OW 7665   4.293   3.625   3.025 -0.2505  0.4060  0.4804
 1917SOL    HW2 7666   4.300   3.707   3.075  0.7324  0.5611  0.1042
 1917SOL    HW3 7667   4.207   3.591   3.048 -0.6019  1.4559  0.7828
 1917SOL    MW4 7668   4.283   3.632   3.035 -0.1672  0.5650  0.4707
 1918SOL     OW 7669   4.286   3.878   3.169 -0.4134 -0.1220 -0.1841
 1918SOL    HW2 7670   4.201   3.912   3.141 -0.4281  1.7628  1.9755
 1918SOL    HW3 7671   4.349   3.924   3.114 -0.6813  0.1068 -0.3044
 1918SOL    MW4 7672   4.283   3.889   3.158 -0.4507  0.1569  0.0850
 1919SOL     OW 7673   4.078   3.947   2.987  0.2473 -0.5166 -0.3440
 1919SOL    HW2 7674   4.077   4.038   3.018  1.4542 -0.6945  0.2579
 1919SOL    HW3 7675   4.009   3.904   3.037  0.8727 -0.3357  0.7041
 1919SOL    MW4 7676   4.069   3.954   2.998  0.4891 -0.5162 -0.1263
 1920SOL     OW 7677   4.039   4.221   3.122  0.4183 -0.1017 -0.2672
 1920SOL    HW2 7678   4.057   4.227   3.216  0.1088  0.3186 -0.2317
 1920SOL    HW3 7679   4.110   4.269   3.080 -0.0755  0.7125 -0.1816
 1920SOL    MW4 7680   4.051   4.228   3.129  0.3123  0.0612 -0.2512
 1921SOL     OW 7681   4.253   4.390   3.031  0.3202 -0.9465 -0.1293
 1921SOL    HW2 7682   4.334   4.347   3.059  1.2977  0.7607 -0.2724
 1921SOL    HW3 7683   4.256   4.384   2.935  1.5633  1.3293 -0.2724
 1921SOL    MW4 7684   4.264   4.383   3.022  0.6132 -0.4210 -0.1670
 1922SOL     OW 7685   0.250   0.001   3.357 -0.2047  0.5577 -0.1963
 1922SOL    HW2 7686   0.315   0.036   3.418 -1.2790  0.4481  1.0230
 1922SOL    HW3 7687   0.240  -0.091   3.382 -0.3288  0.3969 -0.8233
 1922SOL    MW4 7688   0.257  -0.007   3.368 -0.3628  0.5220 -0.1181
 1923SOL     OW 7689   0.022   0.113   3.488  0.0017 -0.1475  0.3484
 1923SOL    HW2 7690   0.024   0.206   3.466 -1.8345 -0.6352 -2.0223
 1923SOL    HW3 7691   0.099   0.076   3.446  0.2618  0.1281  0.5765
 1923SOL    MW4 7692   0.033   0.121   3.480 -0.2063 -0.1755  0.0657
 1924SOL     OW 7693   4.476   0.374   3.393  0.6307  0.3287  0.7563
 1924SOL    HW2 7694   4.410   0.431   3.434  0.7461 -0.1291  1.5800
 1924SOL    HW3 7695   4.560   0.412   3.418  0.7090 -0.2262  1.3436
 1924SOL    MW4 7696   4.478   0.387   3.401  0.6563  0.1951  0.9425
 1925SOL     OW 7697   0.218   0.489   3.495  0.0100 -0.3081  0.0013
 1925SOL    HW2 7698   0.295   0.448   3.456 -0.2431 -1.2703  0.4843
 1925SOL    HW3 7699   0.221   0.580   3.465  0.9665 -0.5036 -0.5204
 1925SOL    MW4 7700   0.229   0.496   3.486  0.1028 -0.4608 -0.0038
 1926SOL     OW 7701   0.214   0.743   3.380 -0.7213 -0.0267  0.7708
 1926SOL    HW2 7702   0.290   0.785   3.418 -0.3827 -0.2122  0.3063
 1926SOL    HW3 7703   0.139   0.788   3.419 -0.3762 -0.0776  1.4866
 1926SOL    MW4 7704   0.214   0.754   3.390 -0.6311 -0.0579  0.8039
 1927SOL     OW 7705   0.003   0.919   3.501  0.1281  0.1558 -0.1637
 1927SOL    HW2 7706   0.027   0.913   3.593  1.4755 -0.8883 -0.5615
 1927SOL    HW3 7707  -0.018   1.011   3.487 -0.3491  0.2670  1.2440
 1927SOL    MW4 7708   0.004   0.930   3.511  0.2429  0.0327 -0.0305
 1928SOL     OW 7709   0.007   1.205   3.428 -0.2021 -0.6075  0.0081
 1928SOL    HW2 7710   0.090   1.244   3.455  0.1950  0.0452 -2.0749
 1928SOL    HW3 7711   0.012   1.203   3.332 -2.3911 -0.9947 -0.1121
 1928SOL    MW4 7712   0.019   1.210   3.419 -0.4385 -0.5724 -0.2826
 1929SOL     OW 7713   0.252   1.303   3.525 -0.2266  0.5553 -0.0633
 1929SOL    HW2 7714   0.308   1.248   3.471  0.2903  1.2058 -0.2075
 1929SOL    HW3 7715   0.261   1.391   3.486 -2.2122  0.4763 -0.7811
 1929SOL    MW4 7716   0.260   1.308   3.512 -0.4204  0.6307 -0.1770
 1930SOL     OW 7717   0.258   1.541   3.368  0.2339 -0.0222 -0.1670
 1930SOL    HW2 7718   0.334   1.587   3.403 -0.0761 -0.0491  0.5596
 1930SOL    HW3 7719   0.282   1.517   3.279  1.3740 -0.7389  0.3306
 1930SOL    MW4 7720   0.271   1.544   3.361  0.3434 -0.1203 -0.0055
 1931SOL     OW 7721   0.048   1.664   3.513 -0.5516 -0.6978  0.2307
 1931SOL    HW2 7722  -0.038   1.628   3.491 -0.6232 -0.3578 -0.0599
 1931SOL    HW3 7723   0.109   1.619   3.453 -0.6594 -0.2478 -0.2278
 1931SOL    MW4 7724   0.045   1.653   3.502 -0.5753 -0.5936  0.1319
 1932SOL     OW 7725   0.025   1.927   3.406  0.1227 -0.2819 -0.3097
 1932SOL    HW2 7726   0.045   1.838   3.435  2.3548  0.1328 -0.4925
 1932SOL    HW3 7727  -0.019   1.915   3.322 -0.6761 -1.2467  0.2314
 1932SOL    MW4 7728   0.022   1.914   3.399  0.3118 -0.3545 -0.2624
 1933SOL     OW 7729   0.224   2.076   3.524  0.1648  0.1463 -0.2147
 1933SOL    HW2 7730   0.221   2.079   3.620 -0.3343  1.8967 -0.2537
 1933SOL    HW3 7731   0.153   2.018   3.499 -2.5559  3.0447  0.3819
 1933SOL    MW4 7732   0.215   2.069   3.533 -0.2600  0.7596 -0.1411
 1934SOL     OW 7733   0.213   2.325   3.406 -0.0182  0.2045 -0.0747
 1934SOL    HW2 7734   0.139   2.363   3.453 -0.1962 -0.5675  0.2669
 1934SOL    HW3 7735   0.220   2.236   3.440  2.0964  0.7744  1.1348
 1934SOL    MW4 7736   0.204   2.318   3.417  0.2373  0.1778  0.1299
 1935SOL     OW 7737   0.021   2.455   3.551 -0.4333 -0.2379 -0.3271
 1935SOL    HW2 7738   0.025   2.438   3.645  1.5214  2.0693  0.0480
 1935SOL    HW3 7739  -0.070   2.439   3.528 -0.9175 -0.9302  1.9422
 1935SOL    MW4 7740   0.010   2.450   3.560 -0.2393 -0.0249  0.0218
 1936SOL     OW 7741   0.056   2.712   3.428 -0.3864 -0.3257  0.1396
 1936SOL    HW2 7742   0.111   2.763   3.487 -1.7804  0.4599  0.8061
 1936SOL    HW3 7743   0.050   2.626   3.468  0.0504 -0.2972  0.2612
 1936SOL    MW4 7744   0.062   2.707   3.441 -0.5127 -0.2182  0.2436
 1937SOL     OW 7745   0.250   2.814   3.592  0.0162 -0.3967 -0.0542
 1937SOL    HW2 7746   0.306   2.757   3.539 -0.1177  0.1586 -0.8052
 1937SOL    HW3 7747   0.256   2.899   3.549 -3.2878 -0.8443 -1.5774
 1937SOL    MW4 7748   0.258   2.818   3.579 -0.4374 -0.3825 -0.3543
 1938SOL     OW 7749   0.230   3.054   3.455 -0.4315 -0.2338  0.1064
 1938SOL    HW2 7750   0.151   3.090   3.495  0.3354  0.6662  0.8550
 1938SOL    HW3 7751   0.226   3.083   3.363  0.0556  1.6226  0.6399
 1938SOL    MW4 7752   0.219   3.063   3.448 -0.2660  0.1298  0.2755
 1939SOL     OW 7753   0.008   3.191   3.549  0.2759  0.3264 -0.6083
 1939SOL    HW2 7754  -0.081   3.162   3.526 -0.2389  1.6838 -0.3565
 1939SOL    HW3 7755   0.019   3.274   3.504  0.8024  0.9743  0.6930
 1939SOL    MW4 7756  -0.002   3.198   3.540  0.2775  0.5910 -0.4034
 1940SOL     OW 7757   0.008   3.453   3.446 -0.0832 -0.1824  0.2454
 1940SOL    HW2 7758  -0.068   3.500   3.481  1.1324  2.0307  0.0047
 1940SOL    HW3 7759  -0.001   3.461   3.351  1.2175  1.3843  0.2392
 1940SOL    MW4 7760  -0.003   3.460   3.438  0.2488  0.3163  0.2128
 1941SOL     OW 7761   0.227   3.605   3.500 -0.4075  0.4421  0.1848
 1941SOL    HW2 7762   0.231   3.614   3.596 -0.3300 -0.2692  0.2527
 1941SOL    HW3 7763   0.153   3.547   3.485 -0.0607  0.0924 -0.1574
 1941SOL    MW4 7764   0.218   3.599   3.511 -0.3515  0.3021  0.1486
 1942SOL     OW 7765   0.212   3.875   3.395  0.3455  0.1171  0.1906
 1942SOL    HW2 7766   0.142   3.928   3.433 -0.5996 -1.1140  0.1852
 1942SOL    HW3 7767   0.189   3.785   3.417  1.2233 -0.4060 -0.9592
 1942SOL    MW4 7768   0.200   3.870   3.403  0.3366 -0.1143  0.0382
 1943SOL     OW 7769   0.028   4.007   3.558  0.0779 -0.0245  0.1320
 1943SOL    HW2 7770   0.014   4.017   3.652  0.8285 -0.2483  0.2654
 1943SOL    HW3 7771   0.031   4.097   3.525  0.1170  0.0591  0.3634
 1943SOL    MW4 7772   0.026   4.020   3.566  0.1821 -0.0430  0.1801
 1944SOL     OW 7773   4.489   4.249   3.383  0.4721  0.3614 -0.0494
 1944SOL    HW2 7774   4.413   4.290   3.425  0.6107  0.8265 -0.2444
 1944SOL    HW3 7775   4.561   4.309   3.401  0.8899 -0.3100  0.5169
 1944SOL    MW4 7776   4.488   4.262   3.391  0.5456  0.3342 -0.0004
 1945SOL     OW 7777   0.236   4.390   3.426  0.4927  0.2107 -0.0907
 1945SOL    HW2 7778   0.239   4.383   3.521 -1.6409 -2.1191 -0.1496
 1945SOL    HW3 7779   0.311   4.339   3.396  1.6514  1.6196  0.3150
 1945SOL    MW4 7780   0.246   4.382   3.434  0.3641  0.0892 -0.0450
 1946SOL     OW 7781   0.661   4.639   3.405 -0.2344  0.1502  0.1865
 1946SOL    HW2 7782   0.746   4.666   3.439 -0.1921 -1.0837  1.0819
 1946SOL    HW3 7783   0.663   4.663   3.313  0.8518  0.6707  0.3374
 1946SOL    MW4 7784   0.672   4.646   3.398 -0.0855  0.0561  0.3245
 1947SOL     OW 7785   0.445   0.110   3.487 -0.2680  0.4738 -0.4776
 1947SOL    HW2 7786   0.435   0.110   3.582  0.6875  0.3363 -0.3699
 1947SOL    HW3 7787   0.526   0.061   3.471 -0.0074  1.1501 -1.3078
 1947SOL    MW4 7788   0.455   0.104   3.497 -0.1075  0.5449 -0.5729
 1948SOL     OW 7789   0.451   0.362   3.387 -0.0113 -0.4711 -0.5332
 1948SOL    HW2 7790   0.530   0.407   3.416 -0.0950  0.0806 -1.1630
 1948SOL    HW3 7791   0.463   0.271   3.416  0.1138 -0.0413  0.8070
 1948SOL    MW4 7792   0.463   0.356   3.395 -0.0059 -0.3416 -0.4395
 1949SOL     OW 7793   0.673   0.505   3.470  0.2824  0.2577 -0.1020
 1949SOL    HW2 7794   0.665   0.476   3.560 -0.7023 -1.3891 -0.6974
 1949SOL    HW3 7795   0.736   0.444   3.430  0.2538  0.5995 -0.6799
 1949SOL    MW4 7796   0.680   0.493   3.476  0.1487  0.0855 -0.2568
 1950SOL     OW 7797   0.631   0.740   3.354 -0.0956  0.3351  0.1371
 1950SOL    HW2 7798   0.572   0.784   3.414 -0.1384  0.3560  0.0792
 1950SOL    HW3 7799   0.639   0.651   3.389 -0.5005  0.2054 -0.0998
 1950SOL    MW4 7800   0.625   0.734   3.367 -0.1547  0.3208  0.0982
 1951SOL     OW 7801   0.444   0.877   3.493 -0.5122  0.0293 -0.2969
 1951SOL    HW2 7802   0.470   0.876   3.585 -1.3344 -0.1977 -0.0681
 1951SOL    HW3 7803   0.447   0.970   3.468 -0.5215  0.1162  0.0224
 1951SOL    MW4 7804   0.448   0.889   3.501 -0.6219  0.0108 -0.2246
 1952SOL     OW 7805   0.449   1.139   3.407 -0.5355  0.4849 -0.1762
 1952SOL    HW2 7806   0.534   1.175   3.431 -0.8591 -0.2116  2.2043
 1952SOL    HW3 7807   0.449   1.137   3.311  2.4490 -0.2847 -0.1919
 1952SOL    MW4 7808   0.460   1.143   3.397 -0.1844  0.2915  0.1358
 1953SOL     OW 7809   0.677   1.273   3.493  0.4964  0.1014 -0.2433
 1953SOL    HW2 7810   0.746   1.217   3.457 -0.1121 -0.2933 -0.8266
 1953SOL    HW3 7811   0.687   1.356   3.448  1.8324  0.6948  1.1204
 1953SOL    MW4 7812   0.687   1.276   3.482  0.5924  0.1276 -0.1404
 1954SOL     OW 7813   0.685   1.530   3.382  0.4451 -0.3716  0.1409
 1954SOL    HW2 7814   0.767   1.561   3.419  0.0913  0.4610  0.2269
 1954SOL    HW3 7815   0.619   1.591   3.414 -0.0006 -0.1890 -1.1159
 1954SOL    MW4 7816   0.687   1.542   3.391  0.3396 -0.2377 -0.0136
 1955SOL     OW 7817   0.456   1.667   3.490  0.3387  0.5155 -0.0914
 1955SOL    HW2 7818   0.457   1.662   3.585 -1.4145  1.8214  0.0296
 1955SOL    HW3 7819   0.434   1.758   3.471  1.2691  0.4181 -1.7591
 1955SOL    MW4 7820   0.453   1.678   3.500  0.2302  0.6749 -0.2955
 1956SOL     OW 7821   0.429   1.947   3.405  0.5183 -0.1555  0.1013
 1956SOL    HW2 7822   0.362   2.001   3.448 -0.1307 -1.0687  0.2724
 1956SOL    HW3 7823   0.413   1.958   3.312  0.8376  0.4977  0.1238
 1956SOL    MW4 7824   0.418   1.955   3.399  0.4748 -0.1898  0.1268
 1957SOL     OW 7825   0.684   2.041   3.462  0.3486  0.2636 -0.1738
 1957SOL    HW2 7826   0.684   2.029   3.557  0.2033 -0.1389 -0.2231
 1957SOL    HW3 7827   0.598   2.011   3.434 -0.0919  1.6089 -0.2894
 1957SOL    MW4 7828   0.673   2.035   3.471  0.2713  0.3880 -0.1956
 1958SOL     OW 7829   0.681   2.304   3.374 -0.1263  0.1351  0.3790
 1958SOL    HW2 7830   0.758   2.353   3.405  0.6483 -1.1123  0.4552
 1958SOL    HW3 7831   0.687   2.220   3.418 -0.7166 -0.5222 -0.7808
 1958SOL    MW4 7832   0.692   2.300   3.384 -0.1020 -0.1162  0.2360
 1959SOL     OW 7833   0.471   2.408   3.521  0.2202  0.5931 -0.4742
 1959SOL    HW2 7834   0.543   2.377   3.467 -0.4342  0.8445 -1.5113
 1959SOL    HW3 7835   0.392   2.386   3.471 -0.4629 -0.3409  0.9737
 1959SOL    MW4 7836   0.470   2.401   3.507  0.0437  0.5030 -0.4200
 1960SOL     OW 7837   0.444   2.681   3.424 -0.0192 -0.2079  0.2530
 1960SOL    HW2 7838   0.463   2.587   3.433 -1.5311 -0.5880 -0.3648
 1960SOL    HW3 7839   0.456   2.699   3.330 -0.0421  0.1439  0.3162
 1960SOL    MW4 7840   0.448   2.671   3.413 -0.2217 -0.2117  0.1799
 1961SOL     OW 7841   0.673   2.840   3.506 -0.8761 -0.0039 -0.0613
 1961SOL    HW2 7842   0.728   2.797   3.441 -0.5639  0.3717 -0.0470
 1961SOL    HW3 7843   0.593   2.787   3.509 -1.2202  0.4184 -1.3386
 1961SOL    MW4 7844   0.669   2.828   3.497 -0.8803  0.1014 -0.2279
 1962SOL     OW 7845   0.646   3.100   3.387 -0.0093 -0.3984 -0.2168
 1962SOL    HW2 7846   0.569   3.139   3.429  0.8082  0.0703  0.8891
 1962SOL    HW3 7847   0.654   3.013   3.428 -0.3611 -0.7378 -0.8551
 1962SOL    MW4 7848   0.637   3.093   3.398  0.0522 -0.3813 -0.1551
 1963SOL     OW 7849   0.447   3.197   3.540  0.4956 -0.2496 -0.3154
 1963SOL    HW2 7850   0.442   3.181   3.634  0.9120 -1.1795 -0.4543
 1963SOL    HW3 7851   0.379   3.141   3.502  0.6721 -0.2609 -0.6197
 1963SOL    MW4 7852   0.437   3.188   3.547  0.5738 -0.3738 -0.3739
 1964SOL     OW 7853   0.431   3.452   3.389  0.5755 -0.3258 -0.2609
 1964SOL    HW2 7854   0.426   3.376   3.446  0.4330  0.7364  1.1611
 1964SOL    HW3 7855   0.369   3.515   3.426  2.1920  1.2845 -0.1716
 1964SOL    MW4 7856   0.423   3.451   3.401  0.7699  0.0268 -0.0615
 1965SOL     OW 7857   0.667   3.570   3.485 -0.1078 -0.1716 -0.2830
 1965SOL    HW2 7858   0.750   3.525   3.466 -0.6025 -0.5799 -1.4883
 1965SOL    HW3 7859   0.600   3.513   3.448 -0.9002  0.4004  0.2733
 1965SOL    MW4 7860   0.669   3.556   3.478 -0.2776 -0.1500 -0.3686
 1966SOL     OW 7861   0.650   3.851   3.384 -0.4087 -0.1299 -0.3610
 1966SOL    HW2 7862   0.576   3.901   3.418 -0.4801  0.0487 -0.7762
 1966SOL    HW3 7863   0.634   3.762   3.413 -0.3529  0.0649  0.2671
 1966SOL    MW4 7864   0.638   3.846   3.392 -0.4107 -0.0807 -0.3329
 1967SOL     OW 7865   0.446   3.981   3.499  0.0496 -0.1622 -0.1819
 1967SOL    HW2 7866   0.450   4.067   3.457  0.2344  0.2559  0.6975
 1967SOL    HW3 7867   0.360   3.947   3.476 -0.6254  0.9025  0.7374
 1967SOL    MW4 7868   0.435   3.988   3.490 -0.0151  0.0334  0.0554
 1968SOL     OW 7869   0.461   4.228   3.381  0.0512 -0.1612  0.0413
 1968SOL    HW2 7870   0.528   4.284   3.420  1.5916 -1.7712 -0.2260
 1968SOL    HW3 7871   0.465   4.248   3.288 -0.2848  0.2107  0.1073
 1968SOL    MW4 7872   0.471   4.238   3.374  0.2101 -0.3245  0.0148
 1969SOL     OW 7873   0.660   4.382   3.493 -0.2247  0.1989  0.6456
 1969SOL    HW2 7874   0.733   4.335   3.452  0.9124  0.6659  2.0540
 1969SOL    HW3 7875   0.659   4.467   3.449  0.7077  0.5346  1.2332
 1969SOL    MW4 7876   0.670   4.387   3.482  0.0484  0.3048  0.9090
 1970SOL     OW 7877   1.136   4.629   3.424  0.2378  0.0187  0.0185
 1970SOL    HW2 7878   1.210   4.685   3.450  1.0951 -0.4739 -1.3218
 1970SOL    HW3 7879   1.121   4.651   3.332 -1.9856  0.8714  0.5693
 1970SOL    MW4 7880   1.144   4.639   3.415  0.0576  0.0662 -0.0857
 1971SOL     OW 7881   0.898   0.087   3.494  0.0143 -0.1111 -0.2086
 1971SOL    HW2 7882   0.891   0.099   3.589 -1.8907 -2.5254 -0.0015
 1971SOL    HW3 7883   0.972   0.028   3.484 -0.8241 -1.1964 -0.0894
 1971SOL    MW4 7884   0.907   0.081   3.505 -0.3476 -0.5728 -0.1655
 1972SOL     OW 7885   0.910   0.354   3.389 -0.0937 -0.5776  0.1310
 1972SOL    HW2 7886   0.982   0.407   3.424 -1.1393  1.0443 -0.1217
 1972SOL    HW3 7887   0.913   0.273   3.440  1.5635 -0.3007  0.4968
 1972SOL    MW4 7888   0.920   0.350   3.401 -0.0130 -0.3271  0.1459
 1973SOL     OW 7889   1.132   0.472   3.486 -0.1535  0.2374  0.0610
 1973SOL    HW2 7890   1.130   0.478   3.582 -0.4184  1.1151  0.0014
 1973SOL    HW3 7891   1.120   0.562   3.456 -0.3278 -0.0706 -0.8030
 1973SOL    MW4 7892   1.130   0.485   3.495 -0.2115  0.3126 -0.0609
 1974SOL     OW 7893   1.094   0.747   3.383  0.1894  0.0902 -0.1400
 1974SOL    HW2 7894   1.159   0.796   3.434  0.8030 -0.8730  0.0177
 1974SOL    HW3 7895   1.010   0.772   3.422  0.7618 -2.2537  2.8211
 1974SOL    MW4 7896   1.092   0.757   3.395  0.3459 -0.3461  0.2715
 1975SOL     OW 7897   0.865   0.861   3.500  0.3485 -0.4974  0.0560
 1975SOL    HW2 7898   0.882   0.939   3.446 -0.1260 -0.2949  0.1937
 1975SOL    HW3 7899   0.788   0.821   3.460  0.3061 -0.6312  0.2748
 1975SOL    MW4 7900   0.857   0.866   3.487  0.2803 -0.4883  0.1031
 1976SOL     OW 7901   0.896   1.124   3.380  0.2403 -0.1934 -0.4515
 1976SOL    HW2 7902   0.978   1.157   3.414 -0.5352  2.0376 -0.6748
 1976SOL    HW3 7903   0.914   1.105   3.287  0.4710  0.4064 -0.5297
 1976SOL    MW4 7904   0.909   1.126   3.372  0.1684  0.1801 -0.4913
 1977SOL     OW 7905   1.131   1.233   3.462  0.0795  0.2596  0.0738
 1977SOL    HW2 7906   1.129   1.234   3.558  1.1310 -0.0474  0.1063
 1977SOL    HW3 7907   1.134   1.326   3.437 -1.1077  0.3590  0.3136
 1977SOL    MW4 7908   1.131   1.246   3.471  0.0616  0.2322  0.1097
 1978SOL     OW 7909   1.136   1.495   3.379 -0.2783  0.6110 -0.5219
 1978SOL    HW2 7910   1.224   1.528   3.400  1.0429 -1.8301 -1.8671
 1978SOL    HW3 7911   1.123   1.518   3.287 -0.4640 -0.2348 -0.7111
 1978SOL    MW4 7912   1.146   1.502   3.369 -0.1285  0.1773 -0.7244
 1979SOL     OW 7913   0.916   1.641   3.476  0.7317  0.0432 -0.3984
 1979SOL    HW2 7914   0.917   1.729   3.437  1.4339 -0.4662 -1.5395
 1979SOL    HW3 7915   0.989   1.596   3.436 -0.2238 -1.3996 -0.5615
 1979SOL    MW4 7916   0.925   1.647   3.466  0.6983 -0.2143 -0.5705
 1980SOL     OW 7917   0.895   1.893   3.370 -0.2968 -0.1294 -0.2162
 1980SOL    HW2 7918   0.974   1.935   3.402  0.3844 -0.8676 -0.9096
 1980SOL    HW3 7919   0.823   1.942   3.411  0.5164  0.2829  0.7273
 1980SOL    MW4 7920   0.896   1.905   3.380 -0.0996 -0.1724 -0.1832
 1981SOL     OW 7921   1.109   2.023   3.490 -0.7831  0.1407  0.1784
 1981SOL    HW2 7922   1.194   1.991   3.460 -0.4666  0.4018  0.7968
 1981SOL    HW3 7923   1.101   2.111   3.453 -0.0285  0.7875  1.5426
 1981SOL    MW4 7924   1.119   2.030   3.481 -0.6418  0.2605  0.4400
 1982SOL     OW 7925   1.091   2.282   3.395 -0.2952 -0.0442 -0.4009
 1982SOL    HW2 7926   1.168   2.333   3.420  0.9003 -1.5926 -0.8420
 1982SOL    HW3 7927   1.097   2.275   3.299  0.4598 -2.3769 -0.2062
 1982SOL    MW4 7928   1.102   2.288   3.385 -0.0378 -0.5562 -0.4334
 1983SOL     OW 7929   0.893   2.459   3.453 -0.1443  0.7996  0.4145
 1983SOL    HW2 7930   0.877   2.446   3.546 -0.2944 -0.2466  0.2550
 1983SOL    HW3 7931   0.959   2.392   3.431 -1.1970  0.0492 -0.5312
 1983SOL    MW4 7932   0.900   2.448   3.462 -0.3030  0.5626  0.2687
 1984SOL     OW 7933   0.872   2.720   3.352  0.3942 -0.2143 -0.0162
 1984SOL    HW2 7934   0.954   2.756   3.386  0.6755 -2.2335  1.5480
 1984SOL    HW3 7935   0.869   2.631   3.387 -1.5559 -0.8052 -1.6161
 1984SOL    MW4 7936   0.882   2.713   3.361  0.1740 -0.5586 -0.0209
 1985SOL     OW 7937   1.093   2.820   3.491 -0.0371 -0.0088  0.1717
 1985SOL    HW2 7938   1.091   2.834   3.585  0.2789  0.8509  0.0566
 1985SOL    HW3 7939   1.175   2.773   3.474  0.4043  0.7455  0.2080
 1985SOL    MW4 7940   1.103   2.815   3.501  0.0628  0.2041  0.1613
 1986SOL     OW 7941   1.118   3.084   3.439 -0.1945  0.4685 -0.2979
 1986SOL    HW2 7942   1.111   2.993   3.467  1.1826  0.1560 -0.9140
 1986SOL    HW3 7943   1.126   3.079   3.344  1.9515  1.0833 -0.1726
 1986SOL    MW4 7944   1.118   3.071   3.430  0.2704  0.5084 -0.3626
 1987SOL     OW 7945   0.873   3.219   3.490 -0.0838  0.5908  0.0090
 1987SOL    HW2 7946   0.946   3.161   3.466 -0.5299 -0.6058  1.4292
 1987SOL    HW3 7947   0.798   3.183   3.443 -0.4366 -0.2429  1.1712
 1987SOL    MW4 7948   0.873   3.207   3.481 -0.1892  0.3229  0.3497
 1988SOL     OW 7949   0.933   3.494   3.433 -0.0406 -0.3895  0.3068
 1988SOL    HW2 7950   0.928   3.405   3.468 -0.6563 -0.2137  0.6879
 1988SOL    HW3 7951   0.928   3.483   3.338 -0.9710 -0.7100  0.3884
 1988SOL    MW4 7952   0.932   3.481   3.425 -0.2446 -0.4086  0.3679
 1989SOL     OW 7953   1.161   3.629   3.511 -0.0019  0.1035  0.1725
 1989SOL    HW2 7954   1.148   3.614   3.604  0.8776 -0.7950  0.1644
 1989SOL    HW3 7955   1.087   3.584   3.469  1.9125 -3.2845  0.2292
 1989SOL    MW4 7956   1.150   3.621   3.517  0.3667 -0.4620  0.1789
 1990SOL     OW 7957   1.148   3.874   3.392  0.3388 -0.3644 -0.2216
 1990SOL    HW2 7958   1.228   3.916   3.426  0.6729 -0.4846 -0.8473
 1990SOL    HW3 7959   1.144   3.790   3.438 -0.4242  0.4114  1.1642
 1990SOL    MW4 7960   1.158   3.868   3.403  0.2822 -0.2779 -0.1213
 1991SOL     OW 7961   0.909   4.009   3.437 -0.1151  0.0750 -0.0517
 1991SOL    HW2 7962   0.987   3.959   3.416  0.0135  0.2278  0.0566
 1991SOL    HW3 7963   0.836   3.955   3.408 -0.0081 -0.5494  0.8281
 1991SOL    MW4 7964   0.910   3.996   3.430 -0.0840  0.0127  0.0787
 1992SOL     OW 7965   0.880   4.270   3.391 -0.5993 -0.3631  0.0641
 1992SOL    HW2 7966   0.897   4.176   3.400 -1.4722 -0.6015 -0.8369
 1992SOL    HW3 7967   0.882   4.286   3.297 -1.5032  0.3354  0.1675
 1992SOL    MW4 7968   0.883   4.260   3.380 -0.8337 -0.3024 -0.0412
 1993SOL     OW 7969   1.120   4.372   3.515 -0.4252  0.3340  0.6857
 1993SOL    HW2 7970   1.036   4.345   3.477 -0.4238 -0.4525  1.2377
 1993SOL    HW3 7971   1.135   4.459   3.479 -0.2299 -0.5473 -1.4438
 1993SOL    MW4 7972   1.111   4.380   3.505 -0.3992  0.1139  0.4776
 1994SOL     OW 7973   1.574   4.631   3.383  0.7975  0.1918  0.1675
 1994SOL    HW2 7974   1.572   4.549   3.434  1.1289  0.4594  0.6144
 1994SOL    HW3 7975   1.516   4.690   3.430 -0.3857 -0.1529 -0.8134
 1994SOL    MW4 7976   1.566   4.628   3.396  0.6851  0.1816  0.0970
 1995SOL     OW 7977   1.371   0.104   3.515 -0.7940  0.0716 -0.1999
 1995SOL    HW2 7978   1.347   0.108   3.607  0.1540  0.7084  0.0240
 1995SOL    HW3 7979   1.376   0.196   3.488  0.2069 -0.0774 -0.5438
 1995SOL    MW4 7980   1.369   0.117   3.523 -0.5369  0.1360 -0.2157
 1996SOL     OW 7981   1.371   0.373   3.410 -0.0762 -0.3363 -0.3677
 1996SOL    HW2 7982   1.444   0.433   3.422  0.1881 -0.5363 -0.9585
 1996SOL    HW3 7983   1.296   0.417   3.449  0.5654 -0.5558  1.1411
 1996SOL    MW4 7984   1.371   0.387   3.417  0.0433 -0.3916 -0.2465
 1997SOL     OW 7985   1.591   0.521   3.489  0.0277  0.6941  0.2018
 1997SOL    HW2 7986   1.607   0.520   3.584 -0.3122 -1.1467  0.2650
 1997SOL    HW3 7987   1.667   0.476   3.452 -1.0701 -0.9386 -0.1538
 1997SOL    MW4 7988   1.603   0.515   3.497 -0.1620  0.2358  0.1632
 1998SOL     OW 7989   1.580   0.780   3.376 -0.1315 -0.4477  0.1392
 1998SOL    HW2 7990   1.494   0.812   3.402  0.0284 -0.8947  1.2189
 1998SOL    HW3 7991   1.588   0.694   3.418  0.0355 -1.2795 -1.5372
 1998SOL    MW4 7992   1.570   0.773   3.385 -0.0884 -0.6164  0.0605
 1999SOL     OW 7993   1.333   0.857   3.500  0.3445  0.0660  0.0884
 1999SOL    HW2 7994   1.358   0.855   3.593  3.1948  0.5799 -0.6183
 1999SOL    HW3 7995   1.330   0.950   3.478 -0.7135 -0.0438 -0.2392
 1999SOL    MW4 7996   1.336   0.869   3.510  0.5810  0.1193 -0.0480
 2000SOL     OW 7997   1.336   1.102   3.348 -0.0828 -0.1559 -0.2849
 2000SOL    HW2 7998   1.406   1.137   3.404 -0.0198  0.6517 -0.8587
 2000SOL    HW3 7999   1.258   1.153   3.374 -0.8521 -2.1688  1.5153
 2000SOL    MW4 8000   1.335   1.114   3.359 -0.1760 -0.3149 -0.1231
 2001SOL     OW 8001   1.556   1.211   3.483 -0.0655  0.0677  0.0804
 2001SOL    HW2 8002   1.580   1.229   3.573 -0.6496 -1.4239  0.5467
 2001SOL    HW3 8003   1.639   1.208   3.436  0.1398  2.7378  0.1735
 2001SOL    MW4 8004   1.570   1.213   3.488 -0.1155  0.2232  0.1542
 2002SOL     OW 8005   1.595   1.470   3.414 -0.2670  0.0184 -0.0087
 2002SOL    HW2 8006   1.571   1.381   3.441  0.1378  0.1608  0.8317
 2002SOL    HW3 8007   1.617   1.462   3.321 -0.2182 -0.7639  0.0689
 2002SOL    MW4 8008   1.595   1.457   3.405 -0.2072 -0.0660  0.1124
 2003SOL     OW 8009   1.361   1.613   3.460  0.1384  0.2883 -0.0207
 2003SOL    HW2 8010   1.358   1.602   3.555 -0.6293  0.6193  0.0005
 2003SOL    HW3 8011   1.444   1.574   3.434 -0.4479 -1.3926  0.5805
 2003SOL    MW4 8012   1.372   1.607   3.469 -0.0402  0.1102  0.0614
 2004SOL     OW 8013   1.345   1.907   3.383  0.2575 -0.0153 -0.0057
 2004SOL    HW2 8014   1.422   1.954   3.414  1.4994 -1.8215 -0.2649
 2004SOL    HW3 8015   1.343   1.828   3.437 -1.1469 -0.1990 -0.3263
 2004SOL    MW4 8016   1.355   1.903   3.394  0.2361 -0.2779 -0.0822
 2005SOL     OW 8017   1.569   2.018   3.495  0.3439 -0.2722 -0.5735
 2005SOL    HW2 8018   1.652   1.981   3.468  0.4987  0.5376 -1.2041
 2005SOL    HW3 8019   1.568   2.107   3.458 -0.1401  0.2637  0.6823
 2005SOL    MW4 8020   1.580   2.025   3.487  0.3004 -0.0946 -0.4910
 2006SOL     OW 8021   1.560   2.279   3.399  0.0429  0.3188 -0.0382
 2006SOL    HW2 8022   1.481   2.314   3.441  0.1921 -0.0884  0.5961
 2006SOL    HW3 8023   1.543   2.285   3.305 -0.6922  0.3483  0.0974
 2006SOL    MW4 8024   1.548   2.284   3.392 -0.0344  0.2689  0.0634
 2007SOL     OW 8025   1.324   2.398   3.465 -0.0822  0.0446 -0.1848
 2007SOL    HW2 8026   1.326   2.400   3.561  2.3953 -2.9279 -0.1050
 2007SOL    HW3 8027   1.335   2.490   3.439  1.2645  0.6396  2.3741
 2007SOL    MW4 8028   1.326   2.410   3.474  0.4224 -0.2691  0.1633
 2008SOL     OW 8029   1.333   2.681   3.437  0.6054 -0.1206 -0.3829
 2008SOL    HW2 8030   1.408   2.734   3.462 -0.1910  0.8583 -0.0269
 2008SOL    HW3 8031   1.330   2.687   3.341  1.5174 -0.9222 -0.4698
 2008SOL    MW4 8032   1.342   2.688   3.427  0.6207 -0.0972 -0.3474
 2009SOL     OW 8033   1.580   2.817   3.483  0.3936  0.3546  0.4469
 2009SOL    HW2 8034   1.655   2.774   3.443  0.1701 -0.2263  0.6363
 2009SOL    HW3 8035   1.591   2.910   3.463  1.6660  0.3984  1.3070
 2009SOL    MW4 8036   1.591   2.823   3.475  0.5320  0.2837  0.5854
 2010SOL     OW 8037   1.604   3.082   3.419 -0.2301  0.1420  0.3228
 2010SOL    HW2 8038   1.680   3.130   3.455  0.0672 -0.2437  0.2124
 2010SOL    HW3 8039   1.529   3.135   3.444  0.1038  0.6924  0.1684
 2010SOL    MW4 8040   1.604   3.095   3.427 -0.1468  0.1637  0.2878
 2011SOL     OW 8041   1.370   3.221   3.511 -0.5281  0.1090 -0.1086
 2011SOL    HW2 8042   1.366   3.224   3.606 -0.4684 -0.8544 -0.0631
 2011SOL    HW3 8043   1.296   3.165   3.486  1.6701 -2.8358 -0.3706
 2011SOL    MW4 8044   1.360   3.214   3.520 -0.2302 -0.4067 -0.1372
 2012SOL     OW 8045   1.365   3.500   3.392  0.2433  0.3545 -0.5369
 2012SOL    HW2 8046   1.375   3.421   3.445  1.4218  0.5260 -0.4919
 2012SOL    HW3 8047   1.294   3.548   3.434 -0.3380 -0.5812 -0.4426
 2012SOL    MW4 8048   1.357   3.496   3.405  0.3221  0.2537 -0.5185
 2013SOL     OW 8049   1.588   3.603   3.513 -0.0546 -0.2814 -0.0526
 2013SOL    HW2 8050   1.575   3.610   3.608 -0.0950 -1.1575  0.0153
 2013SOL    HW3 8051   1.504   3.570   3.480 -0.0860  0.1514 -0.4152
 2013SOL    MW4 8052   1.575   3.599   3.521 -0.0641 -0.3399 -0.0915
 2014SOL     OW 8053   1.576   3.858   3.406  0.3544 -0.2541  0.4514
 2014SOL    HW2 8054   1.583   3.767   3.436 -0.5642 -0.0498  1.3138
 2014SOL    HW3 8055   1.597   3.854   3.313  2.0168 -1.0886  0.8325
 2014SOL    MW4 8056   1.580   3.845   3.398  0.4525 -0.3373  0.6155
 2015SOL     OW 8057   1.360   3.997   3.505  0.4646  0.3465  0.4542
 2015SOL    HW2 8058   1.370   4.081   3.460  1.7839  0.5150  1.0187
 2015SOL    HW3 8059   1.430   3.943   3.469 -0.5940 -0.6366 -0.1567
 2015SOL    MW4 8060   1.371   4.001   3.494  0.4990  0.2390  0.4481
 2016SOL     OW 8061   1.366   4.245   3.396 -0.1667 -0.0538 -0.0855
 2016SOL    HW2 8062   1.273   4.266   3.405  0.5096  2.1944  2.4646
 2016SOL    HW3 8063   1.384   4.257   3.303 -2.3335 -0.1404 -0.5550
 2016SOL    MW4 8064   1.356   4.250   3.385 -0.3634  0.2314  0.1890
 2017SOL     OW 8065   1.584   4.387   3.516  0.1406 -0.0939 -0.1670
 2017SOL    HW2 8066   1.662   4.355   3.471 -0.1455 -0.2531 -0.5587
 2017SOL    HW3 8067   1.514   4.328   3.488 -0.3232  0.6547 -0.6348
 2017SOL    MW4 8068   1.585   4.375   3.506  0.0417 -0.0161 -0.2804
 2018SOL     OW 8069   2.010   4.648   3.396  0.3945 -0.2471 -0.7698
 2018SOL    HW2 8070   2.081   4.697   3.437 -0.0123 -0.1022 -0.2330
 2018SOL    HW3 8071   1.930   4.696   3.420 -0.0077 -1.1509 -0.2449
 2018SOL    MW4 8072   2.008   4.661   3.405  0.2878 -0.3472 -0.6298
 2019SOL     OW 8073   1.787   0.114   3.499 -0.1698  0.0795 -0.0543
 2019SOL    HW2 8074   1.785   0.117   3.594 -0.5836  0.1346 -0.0621
 2019SOL    HW3 8075   1.724   0.046   3.476  1.4305 -1.3644 -0.2211
 2019SOL    MW4 8076   1.778   0.106   3.508 -0.0132 -0.1038 -0.0773
 2020SOL     OW 8077   1.801   0.366   3.399  0.2289 -0.2583  0.0519
 2020SOL    HW2 8078   1.779   0.277   3.426 -1.3310  0.2225  0.4534
 2020SOL    HW3 8079   1.811   0.361   3.304  0.4471 -0.9274  0.1113
 2020SOL    MW4 8080   1.799   0.354   3.390  0.0519 -0.2832  0.1127
 2021SOL     OW 8081   2.036   0.510   3.450 -0.6462  0.3096 -0.3547
 2021SOL    HW2 8082   2.019   0.602   3.427 -0.5442  0.0445 -1.5503
 2021SOL    HW3 8083   1.953   0.466   3.432 -0.3262 -0.0433 -1.0018
 2021SOL    MW4 8084   2.023   0.516   3.444 -0.5905  0.2281 -0.5978
 2022SOL     OW 8085   2.025   0.786   3.404 -0.0547 -0.1744 -0.3793
 2022SOL    HW2 8086   2.106   0.833   3.425  0.9848 -2.2822  0.4431
 2022SOL    HW3 8087   2.028   0.774   3.309  1.3898 -1.6307 -0.1677
 2022SOL    MW4 8088   2.036   0.791   3.394  0.2731 -0.6447 -0.2429
 2023SOL     OW 8089   1.794   0.931   3.475  0.2977  0.3685 -0.2096
 2023SOL    HW2 8090   1.879   0.895   3.451  0.0487 -0.3771  0.0092
 2023SOL    HW3 8091   1.731   0.875   3.431 -0.1043  0.3525  0.3767
 2023SOL    MW4 8092   1.797   0.919   3.466  0.2118  0.2680 -0.1034
 2024SOL     OW 8093   1.819   1.189   3.355 -0.1895  0.1423  0.4094
 2024SOL    HW2 8094   1.890   1.234   3.400  0.0914 -0.2402  0.3498
 2024SOL    HW3 8095   1.814   1.104   3.398 -0.5907  0.1547  0.3925
 2024SOL    MW4 8096   1.828   1.184   3.367 -0.2054  0.0935  0.3993
 2025SOL     OW 8097   2.048   1.284   3.491  0.1185  0.3233 -0.2680
 2025SOL    HW2 8098   2.057   1.294   3.586  1.3103 -0.5128 -0.2849
 2025SOL    HW3 8099   2.077   1.369   3.456  0.4745  0.3518  0.0783
 2025SOL    MW4 8100   2.053   1.297   3.499  0.3227  0.2167 -0.2245
 2026SOL     OW 8101   2.062   1.532   3.369 -0.1034  0.3555  0.0771
 2026SOL    HW2 8102   2.135   1.578   3.410 -0.2350 -1.1065  1.9912
 2026SOL    HW3 8103   1.984   1.570   3.410 -0.3651  0.6132 -0.6361
 2026SOL    MW4 8104   2.061   1.543   3.380 -0.1553  0.1966  0.2355
 2027SOL     OW 8105   1.834   1.629   3.517  0.2228  0.0305  0.1785
 2027SOL    HW2 8106   1.825   1.719   3.487 -1.2478 -0.5622 -1.2217
 2027SOL    HW3 8107   1.757   1.584   3.484  0.0959 -1.3865  2.2749
 2027SOL    MW4 8108   1.823   1.635   3.509  0.0120 -0.2347  0.2703
 2028SOL     OW 8109   1.803   1.889   3.431 -0.1700  0.5008 -0.8199
 2028SOL    HW2 8110   1.888   1.925   3.455  1.2677 -3.3419  0.0817
 2028SOL    HW3 8111   1.802   1.891   3.335  1.3295 -0.3422 -0.8583
 2028SOL    MW4 8112   1.814   1.894   3.421  0.2175 -0.1174 -0.7060
 2029SOL     OW 8113   2.029   2.032   3.514 -0.0580 -0.2047  0.0149
 2029SOL    HW2 8114   2.117   2.003   3.491 -0.0905 -0.6814  0.4597
 2029SOL    HW3 8115   2.012   2.107   3.458 -0.8566 -2.4524 -2.8712
 2029SOL    MW4 8116   2.038   2.038   3.503 -0.1677 -0.5641 -0.3072
 2030SOL     OW 8117   2.004   2.272   3.380  0.4568 -0.6499  0.0189
 2030SOL    HW2 8118   2.083   2.308   3.420 -0.6147  1.2841  0.4304
 2030SOL    HW3 8119   2.020   2.278   3.286  1.6928 -2.3389  0.0849
 2030SOL    MW4 8120   2.016   2.278   3.373  0.4785 -0.6176  0.0819
 2031SOL     OW 8121   1.787   2.423   3.480 -0.6474 -0.4567  0.1435
 2031SOL    HW2 8122   1.871   2.386   3.454 -0.3711  0.6578 -0.6023
 2031SOL    HW3 8123   1.723   2.377   3.425 -0.0960  1.6508 -2.4104
 2031SOL    MW4 8124   1.790   2.412   3.469 -0.5382 -0.0316 -0.2918
 2032SOL     OW 8125   1.806   2.693   3.388 -0.5601  0.1099 -0.5068
 2032SOL    HW2 8126   1.887   2.714   3.434 -1.7068 -0.2825  1.7756
 2032SOL    HW3 8127   1.793   2.600   3.405 -1.1437  0.0296 -1.4049
 2032SOL    MW4 8128   1.815   2.683   3.397 -0.7884  0.0475 -0.3242
 2033SOL     OW 8129   2.025   2.834   3.489 -0.0261  0.0590 -0.2869
 2033SOL    HW2 8130   2.024   2.852   3.583  0.9817 -0.9794 -0.0582
 2033SOL    HW3 8131   2.029   2.920   3.448  3.2868  0.4551  0.7216
 2033SOL    MW4 8132   2.025   2.848   3.496  0.5440 -0.0257 -0.1236
 2034SOL     OW 8133   2.034   3.085   3.390 -0.1198  0.3421 -0.0427
 2034SOL    HW2 8134   2.114   3.125   3.427 -1.2722  1.5789  1.1990
 2034SOL    HW3 8135   1.963   3.128   3.437 -1.5523 -0.2218 -1.6660
 2034SOL    MW4 8136   2.035   3.096   3.401 -0.4609  0.4309 -0.0931
 2035SOL     OW 8137   1.833   3.234   3.525 -0.1323  0.0756  0.1902
 2035SOL    HW2 8138   1.823   3.240   3.620  1.0666  0.3663  0.3011
 2035SOL    HW3 8139   1.837   3.326   3.497  2.0575 -0.0250  0.1363
 2035SOL    MW4 8140   1.832   3.247   3.534  0.3148  0.1007  0.1978
 2036SOL     OW 8141   1.808   3.480   3.404  0.0422  0.4076  0.0146
 2036SOL    HW2 8142   1.727   3.522   3.433 -1.1781 -0.2679 -2.2873
 2036SOL    HW3 8143   1.812   3.498   3.310  1.8095 -0.8403 -0.1843
 2036SOL    MW4 8144   1.798   3.488   3.396  0.1144  0.1539 -0.3153
 2037SOL     OW 8145   2.038   3.607   3.496  0.4086 -0.4458 -0.0372
 2037SOL    HW2 8146   2.108   3.542   3.487  0.2372 -0.4701 -1.2591
 2037SOL    HW3 8147   1.960   3.563   3.461  0.0747  0.0553  0.0769
 2037SOL    MW4 8148   2.037   3.593   3.490  0.3419 -0.3829 -0.1834
 2038SOL     OW 8149   2.055   3.886   3.414 -0.3389  0.1884 -0.0731
 2038SOL    HW2 8150   1.971   3.927   3.434 -0.8707 -1.1631  0.4569
 2038SOL    HW3 8151   2.052   3.801   3.456  0.7104 -0.4794 -1.3002
 2038SOL    MW4 8152   2.043   3.880   3.422 -0.2706 -0.0780 -0.1650
 2039SOL     OW 8153   1.798   4.019   3.458  0.0614  0.7284 -0.7940
 2039SOL    HW2 8154   1.803   4.036   3.553  1.6609  0.4939 -0.8302
 2039SOL    HW3 8155   1.732   3.950   3.450  0.0005  0.6573  0.1654
 2039SOL    MW4 8156   1.790   4.012   3.470  0.2644  0.6881 -0.6722
 2040SOL     OW 8157   1.796   4.283   3.370  0.3806 -0.0936 -0.0003
 2040SOL    HW2 8158   1.790   4.190   3.393  1.0261 -0.1284  0.0380
 2040SOL    HW3 8159   1.797   4.284   3.274 -1.4560 -0.0060 -0.0271
 2040SOL    MW4 8160   1.795   4.271   3.360  0.2235 -0.0866  0.0012
 2041SOL     OW 8161   2.035   4.357   3.485  0.4104 -0.0474 -0.1882
 2041SOL    HW2 8162   1.953   4.324   3.448  0.4456  0.2866 -0.5609
 2041SOL    HW3 8163   2.040   4.448   3.455  1.3348 -0.3164 -0.8478
 2041SOL    MW4 8164   2.024   4.365   3.476  0.5370 -0.0388 -0.3244
 2042SOL     OW 8165   2.451   4.664   3.424 -0.3665 -0.2290 -0.8732
 2042SOL    HW2 8166   2.456   4.576   3.461  0.1015  0.1783  0.0350
 2042SOL    HW3 8167   2.453   4.650   3.329 -1.9672 -1.3070 -0.7745
 2042SOL    MW4 8168   2.452   4.650   3.416 -0.5159 -0.3175 -0.7403
 2043SOL     OW 8169   2.209   0.127   3.522 -0.2548 -0.1261 -0.3229
 2043SOL    HW2 8170   2.217   0.204   3.466 -1.5773  0.3843  0.1604
 2043SOL    HW3 8171   2.282   0.071   3.497  0.6404  1.2221 -0.7850
 2043SOL    MW4 8172   2.220   0.130   3.511 -0.3111  0.1191 -0.3201
 2044SOL     OW 8173   2.265   0.353   3.389 -0.0513  0.2618  0.4228
 2044SOL    HW2 8174   2.333   0.379   3.452  1.8784  0.4142 -1.6635
 2044SOL    HW3 8175   2.191   0.410   3.409  0.8532  0.9505  1.9320
 2044SOL    MW4 8176   2.265   0.364   3.400  0.3227  0.3728  0.3467
 2045SOL     OW 8177   2.471   0.493   3.512 -0.3933  0.6330  0.1241
 2045SOL    HW2 8178   2.550   0.441   3.498 -1.7937 -1.3068 -0.7937
 2045SOL    HW3 8179   2.471   0.556   3.440 -0.2879 -0.1366 -0.5576
 2045SOL    MW4 8180   2.482   0.494   3.501 -0.5642  0.2755 -0.0869
 2046SOL     OW 8181   2.466   0.751   3.382 -0.0372  0.7898 -0.1405
 2046SOL    HW2 8182   2.547   0.796   3.406  0.4887  0.6850 -1.6530
 2046SOL    HW3 8183   2.456   0.769   3.288 -1.3302  0.1273 -0.1356
 2046SOL    MW4 8184   2.476   0.759   3.372 -0.1384  0.6886 -0.3394
 2047SOL     OW 8185   2.277   0.912   3.524 -0.3320  0.4611 -0.2060
 2047SOL    HW2 8186   2.275   0.992   3.473 -0.9681  0.3424 -0.3708
 2047SOL    HW3 8187   2.343   0.857   3.481  0.2467  0.9727  0.0275
 2047SOL    MW4 8188   2.285   0.915   3.512 -0.3396  0.5129 -0.1969
 2048SOL     OW 8189   2.246   1.124   3.345 -0.1545 -0.1389 -0.3365
 2048SOL    HW2 8190   2.322   1.169   3.381  0.3367 -0.7507 -0.5982
 2048SOL    HW3 8191   2.171   1.171   3.381  0.3471  0.4428 -0.0471
 2048SOL    MW4 8192   2.246   1.136   3.355 -0.0235 -0.1429 -0.3328
 2049SOL     OW 8193   2.464   1.243   3.439 -0.2919 -0.0387 -0.6605
 2049SOL    HW2 8194   2.460   1.241   3.534  0.4376 -0.9679 -0.6499
 2049SOL    HW3 8195   2.550   1.207   3.417 -0.9046 -0.9080 -1.7035
 2049SOL    MW4 8196   2.474   1.238   3.448 -0.2765 -0.2760 -0.7967
 2050SOL     OW 8197   2.504   1.507   3.386  0.0225 -0.1544  0.2613
 2050SOL    HW2 8198   2.491   1.414   3.402 -1.6151  0.3012  1.6583
 2050SOL    HW3 8199   2.490   1.517   3.291 -1.9636 -1.0060  0.4358
 2050SOL    MW4 8200   2.501   1.496   3.375 -0.4556 -0.2067  0.4686
 2051SOL     OW 8201   2.301   1.647   3.493  0.4792  0.4746  0.5270
 2051SOL    HW2 8202   2.303   1.625   3.586 -1.3301 -3.4435 -0.2454
 2051SOL    HW3 8203   2.378   1.604   3.456 -0.5801 -0.7400 -0.2921
 2051SOL    MW4 8204   2.311   1.639   3.501  0.1007 -0.2026  0.3171
 2052SOL     OW 8205   2.266   1.912   3.449  0.5834 -0.5882 -0.3566
 2052SOL    HW2 8206   2.275   1.817   3.461 -1.2771 -1.0275 -2.0537
 2052SOL    HW3 8207   2.275   1.924   3.354 -1.5310  0.6320 -0.4221
 2052SOL    MW4 8208   2.269   1.901   3.438  0.0590 -0.4852 -0.5892
 2053SOL     OW 8209   2.528   1.983   3.518  0.0748 -0.0265 -0.4185
 2053SOL    HW2 8210   2.524   1.982   3.614 -0.3580 -0.0585 -0.4360
 2053SOL    HW3 8211   2.446   1.942   3.491  0.0783  0.2275 -0.8071
 2053SOL    MW4 8212   2.516   1.977   3.527  0.0181  0.0028 -0.4721
 2054SOL     OW 8213   2.457   2.250   3.436 -0.1313  0.1327  0.1510
 2054SOL    HW2 8214   2.536   2.301   3.453  0.0205 -0.0378 -0.0531
 2054SOL    HW3 8215   2.477   2.162   3.467 -0.8644  0.5047  1.7595
 2054SOL    MW4 8216   2.470   2.245   3.443 -0.2080  0.1593  0.3363
 2055SOL     OW 8217   2.217   2.402   3.505  0.1982 -0.1952 -0.1978
 2055SOL    HW2 8218   2.223   2.494   3.480  1.2160  0.7370  3.2143
 2055SOL    HW3 8219   2.298   2.363   3.471  0.3501  0.4230 -0.5612
 2055SOL    MW4 8220   2.229   2.409   3.497  0.3525  0.0093  0.2045
 2056SOL     OW 8221   2.260   2.667   3.421 -0.2074 -0.2081 -0.4603
 2056SOL    HW2 8222   2.184   2.721   3.444 -0.5468 -0.6956 -0.4359
 2056SOL    HW3 8223   2.264   2.670   3.326  0.2693  0.5387 -0.4180
 2056SOL    MW4 8224   2.251   2.675   3.412 -0.1893 -0.1739 -0.4515
 2057SOL     OW 8225   2.483   2.820   3.479 -0.4909 -0.0024 -0.3130
 2057SOL    HW2 8226   2.471   2.905   3.439  3.3467 -0.2423 -2.2279
 2057SOL    HW3 8227   2.405   2.770   3.455 -2.0656  2.4618 -0.4291
 2057SOL    MW4 8228   2.472   2.824   3.471 -0.1923  0.2911 -0.5810
 2058SOL     OW 8229   2.469   3.073   3.393 -0.1921  0.4748 -0.0792
 2058SOL    HW2 8230   2.557   3.094   3.424  0.2425 -2.3664  0.7701
 2058SOL    HW3 8231   2.465   3.108   3.304  1.5088  1.3281  0.1707
 2058SOL    MW4 8232   2.480   3.080   3.385  0.0897  0.2125  0.0658
 2059SOL     OW 8233   2.248   3.168   3.526 -0.0419 -0.1702 -0.1705
 2059SOL    HW2 8234   2.263   3.156   3.620  1.8784 -0.4845 -0.4891
 2059SOL    HW3 8235   2.326   3.130   3.485 -0.7427  0.2115 -1.8774
 2059SOL    MW4 8236   2.261   3.161   3.533  0.1190 -0.1613 -0.4377
 2060SOL     OW 8237   2.244   3.450   3.463  0.4723 -0.2496 -0.3878
 2060SOL    HW2 8238   2.252   3.355   3.476 -0.3615 -0.4816 -1.5174
 2060SOL    HW3 8239   2.233   3.460   3.368 -0.5656  0.8982 -0.1536
 2060SOL    MW4 8240   2.244   3.439   3.452  0.2254 -0.1288 -0.5060
 2061SOL     OW 8241   2.487   3.541   3.549 -0.0368  0.3233 -0.1667
 2061SOL    HW2 8242   2.491   3.629   3.513 -2.1416  0.7697  0.6140
 2061SOL    HW3 8243   2.397   3.512   3.531  0.5341 -1.5455 -0.1450
 2061SOL    MW4 8244   2.475   3.549   3.542 -0.2392  0.1356 -0.0608
 2062SOL     OW 8245   2.507   3.792   3.439 -0.0599  0.9275 -0.2974
 2062SOL    HW2 8246   2.583   3.835   3.478  0.5089  0.2718 -0.6735
 2062SOL    HW3 8247   2.433   3.849   3.462  0.1093  0.0771  2.5560
 2062SOL    MW4 8248   2.507   3.805   3.447  0.0375  0.7288  0.0294
 2063SOL     OW 8249   2.322   3.980   3.511  0.1452  0.0619  0.4930
 2063SOL    HW2 8250   2.326   4.073   3.488  0.5112 -0.2068 -0.5267
 2063SOL    HW3 8251   2.238   3.950   3.478 -0.5860  0.3449  2.0450
 2063SOL    MW4 8252   2.312   3.989   3.504  0.0970  0.0638  0.5632
 2064SOL     OW 8253   2.275   4.244   3.416  0.3963  0.2218  0.3496
 2064SOL    HW2 8254   2.192   4.291   3.427  0.4643  0.0530  1.7726
 2064SOL    HW3 8255   2.289   4.242   3.322 -0.6670  1.2172  0.1457
 2064SOL    MW4 8256   2.266   4.250   3.405  0.2650  0.3308  0.5104
 2065SOL     OW 8257   2.494   4.390   3.528  0.4489 -0.0187  0.1321
 2065SOL    HW2 8258   2.496   4.383   3.623 -0.8189 -0.2075  0.1583
 2065SOL    HW3 8259   2.416   4.341   3.502  1.7985 -1.5575 -1.1642
 2065SOL    MW4 8260   2.484   4.383   3.537  0.4597 -0.2466 -0.0354
 2066SOL     OW 8261   2.890   4.627   3.414  0.3497 -0.3482 -0.0815
 2066SOL    HW2 8262   2.806   4.666   3.441  0.6604  1.2994 -1.4154
 2066SOL    HW3 8263   2.896   4.646   3.321  1.3966 -2.0169 -0.3659
 2066SOL    MW4 8264   2.879   4.635   3.406  0.5288 -0.3510 -0.2950
 2067SOL     OW 8265   2.682   0.090   3.536 -0.0256  0.1692 -0.3923
 2067SOL    HW2 8266   2.695   0.178   3.502  0.2554  0.2907  0.0299
 2067SOL    HW3 8267   2.598   0.062   3.499 -0.1030  0.6029 -0.5443
 2067SOL    MW4 8268   2.673   0.098   3.526  0.0013  0.2425 -0.3567
 2068SOL     OW 8269   2.706   0.338   3.410 -0.0744  0.3811 -0.0738
 2068SOL    HW2 8270   2.786   0.376   3.448  0.8946 -1.8278  0.1839
 2068SOL    HW3 8271   2.721   0.339   3.316  0.2303  0.0436 -0.0300
 2068SOL    MW4 8272   2.719   0.343   3.403  0.0937  0.0451 -0.0340
 2069SOL     OW 8273   2.952   0.465   3.467  0.1342 -0.1974 -0.1460
 2069SOL    HW2 8274   2.968   0.478   3.560  0.6128 -0.3345 -0.2091
 2069SOL    HW3 8275   2.923   0.551   3.436 -2.4731 -0.7465  0.6198
 2069SOL    MW4 8276   2.951   0.478   3.475 -0.1467 -0.2880 -0.0533
 2070SOL     OW 8277   2.909   0.725   3.383 -0.3630  0.9649  0.1457
 2070SOL    HW2 8278   2.995   0.748   3.419 -0.7027 -1.1281  2.4612
 2070SOL    HW3 8279   2.847   0.777   3.433 -0.4991  2.0414 -1.1276
 2070SOL    MW4 8280   2.912   0.735   3.395 -0.4258  0.8308  0.2832
 2071SOL     OW 8281   2.701   0.885   3.482  0.0006 -0.7319  0.3795
 2071SOL    HW2 8282   2.698   0.888   3.578 -0.6624 -0.0969  0.3445
 2071SOL    HW3 8283   2.692   0.977   3.455  0.9154 -0.8279 -0.2747
 2071SOL    MW4 8284   2.700   0.898   3.491  0.0339 -0.6608  0.2885
 2072SOL     OW 8285   2.700   1.134   3.341  0.4895 -0.2371 -0.2809
 2072SOL    HW2 8286   2.789   1.149   3.373  0.3114  2.3591 -0.8297
 2072SOL    HW3 8287   2.708   1.135   3.245 -0.0894 -0.2142 -0.3331
 2072SOL    MW4 8288   2.713   1.136   3.332  0.3896  0.1085 -0.3602
 2073SOL     OW 8289   2.931   1.202   3.457  0.3998  0.0454 -0.0812
 2073SOL    HW2 8290   2.921   1.225   3.549 -1.5047 -0.9121 -0.0304
 2073SOL    HW3 8291   3.026   1.192   3.445  0.7279  1.2062  1.5069
 2073SOL    MW4 8292   2.942   1.203   3.468  0.1918  0.0722  0.1350
 2074SOL     OW 8293   2.918   1.450   3.348  0.0043  0.2601  0.2278
 2074SOL    HW2 8294   2.854   1.492   3.405 -0.7374 -0.1521 -0.2807
 2074SOL    HW3 8295   2.926   1.361   3.382 -0.4328  0.0159 -0.2923
 2074SOL    MW4 8296   2.910   1.443   3.360 -0.1512  0.1735  0.0921
 2075SOL     OW 8297   2.730   1.586   3.509 -0.5901 -0.2944 -0.0830
 2075SOL    HW2 8298   2.736   1.671   3.465 -0.5600  0.0868  0.6399
 2075SOL    HW3 8299   2.655   1.543   3.469 -0.6951  0.1374 -0.3487
 2075SOL    MW4 8300   2.721   1.591   3.498 -0.6000 -0.1871 -0.0226
 2076SOL     OW 8301   2.746   1.841   3.408 -0.2998 -0.4009 -0.1171
 2076SOL    HW2 8302   2.667   1.883   3.439  0.7770  2.5716 -1.2514
 2076SOL    HW3 8303   2.731   1.828   3.314  1.2280  1.8674 -0.7098
 2076SOL    MW4 8304   2.734   1.845   3.399  0.0438  0.2905 -0.3450
 2077SOL     OW 8305   2.945   2.044   3.464  0.1365 -0.4076 -0.0125
 2077SOL    HW2 8306   2.937   2.043   3.560 -0.0388 -0.2805 -0.0266
 2077SOL    HW3 8307   2.882   1.980   3.433 -0.1983 -0.0522 -0.0723
 2077SOL    MW4 8308   2.936   2.036   3.473  0.0692 -0.3440 -0.0223
 2078SOL     OW 8309   2.876   2.311   3.383  0.0709 -0.0805  0.5647
 2078SOL    HW2 8310   2.865   2.224   3.420 -0.7734 -0.0172  0.4595
 2078SOL    HW3 8311   2.884   2.295   3.288 -1.7184  0.0911  0.3774
 2078SOL    MW4 8312   2.876   2.297   3.375 -0.2766 -0.0495  0.5261
 2079SOL     OW 8313   2.670   2.445   3.482 -0.3207  0.0517 -0.1021
 2079SOL    HW2 8314   2.694   2.457   3.574 -0.2264 -0.3338 -0.0783
 2079SOL    HW3 8315   2.749   2.412   3.440 -1.0104 -1.9753  0.1295
 2079SOL    MW4 8316   2.683   2.443   3.489 -0.3993 -0.2666 -0.0684
 2080SOL     OW 8317   2.723   2.697   3.424 -0.6154  0.0056  0.8145
 2080SOL    HW2 8318   2.699   2.606   3.439 -1.9263 -0.0063 -1.1539
 2080SOL    HW3 8319   2.643   2.746   3.446 -0.3638  0.5577  0.4868
 2080SOL    MW4 8320   2.709   2.691   3.429 -0.7552  0.0768  0.5116
 2081SOL     OW 8321   2.955   2.818   3.504  0.3097  0.2030  0.3401
 2081SOL    HW2 8322   2.946   2.813   3.599 -1.5072  0.1614  0.1901
 2081SOL    HW3 8323   2.877   2.774   3.470  0.8103  0.4372 -1.1700
 2081SOL    MW4 8324   2.943   2.812   3.512  0.1360  0.2284  0.1211
 2082SOL     OW 8325   2.968   3.058   3.385 -0.1997 -0.2673  0.1195
 2082SOL    HW2 8326   2.962   2.968   3.416  0.1187 -0.8100 -1.3703
 2082SOL    HW3 8327   2.976   3.051   3.290  0.0726  1.3202  0.0034
 2082SOL    MW4 8328   2.969   3.045   3.376 -0.1218 -0.1294 -0.0924
 2083SOL     OW 8329   2.726   3.157   3.458  0.0845  0.0104 -0.5480
 2083SOL    HW2 8330   2.743   3.157   3.552 -0.2075 -2.2954 -0.4626
 2083SOL    HW3 8331   2.803   3.116   3.420 -0.2370  0.0311 -1.2272
 2083SOL    MW4 8332   2.738   3.152   3.466  0.0036 -0.2911 -0.6263
 2084SOL     OW 8333   2.709   3.446   3.399  0.3188 -0.1979  0.5260
 2084SOL    HW2 8334   2.703   3.355   3.429  0.1928  0.2304  1.8103
 2084SOL    HW3 8335   2.640   3.492   3.447  0.4500  0.6120 -0.0424
 2084SOL    MW4 8336   2.699   3.440   3.409  0.3195 -0.0345  0.6204
 2085SOL     OW 8337   2.936   3.551   3.514  0.4508  0.8561  0.6288
 2085SOL    HW2 8338   2.932   3.631   3.462 -1.0027  1.1333  1.1454
 2085SOL    HW3 8339   2.857   3.503   3.492  1.3942 -0.5470  0.1921
 2085SOL    MW4 8340   2.925   3.555   3.504  0.3835  0.7075  0.6393
 2086SOL     OW 8341   2.946   3.811   3.397  0.2812  0.3435 -0.2868
 2086SOL    HW2 8342   3.020   3.845   3.447 -0.0290  1.1833 -0.4063
 2086SOL    HW3 8343   2.871   3.862   3.428 -0.1809 -0.2298 -0.4598
 2086SOL    MW4 8344   2.946   3.822   3.408  0.1793  0.3787 -0.3254
 2087SOL     OW 8345   2.711   3.954   3.513 -0.4582  0.1583  0.0189
 2087SOL    HW2 8346   2.710   3.970   3.608  0.6636  2.1554 -0.2741
 2087SOL    HW3 8347   2.704   4.041   3.474  0.7292 -0.5070 -1.7324
 2087SOL    MW4 8348   2.710   3.968   3.521 -0.1535  0.3340 -0.2508
 2088SOL     OW 8349   2.702   4.233   3.409 -0.1781  0.0437  0.1305
 2088SOL    HW2 8350   2.785   4.268   3.441 -0.3513  1.6534 -1.1025
 2088SOL    HW3 8351   2.635   4.287   3.450 -0.6154 -0.9226  0.7215
 2088SOL    MW4 8352   2.704   4.244   3.418 -0.2586  0.1286  0.0458
 2089SOL     OW 8353   2.924   4.352   3.525  0.6280 -0.2494  0.0305
 2089SOL    HW2 8354   2.930   4.359   3.620 -0.3210 -2.7585  0.3246
 2089SOL    HW3 8355   2.902   4.440   3.495  0.6593  0.5032  2.1426
 2089SOL    MW4 8356   2.922   4.364   3.534  0.5069 -0.4811  0.3480
 2090SOL     OW 8357   3.361   4.597   3.387 -0.1589  0.0559 -0.6460
 2090SOL    HW2 8358   3.284   4.643   3.422 -0.9436 -0.5117 -1.5831
 2090SOL    HW3 8359   3.351   4.602   3.292  1.6447  1.0760 -0.8026
 2090SOL    MW4 8360   3.349   4.604   3.379 -0.0245  0.1156 -0.7903
 2091SOL     OW 8361   3.131   0.063   3.482  0.7189  0.1847 -0.3219
 2091SOL    HW2 8362   3.133   0.151   3.443 -0.9746  0.9002  1.1235
 2091SOL    HW3 8363   3.048   0.026   3.452 -0.8803  0.9557  2.9337
 2091SOL    MW4 8364   3.121   0.070   3.473  0.2844  0.3808  0.2983
 2092SOL     OW 8365   3.170   0.304   3.364  0.1151 -0.2590 -0.0264
 2092SOL    HW2 8366   3.085   0.339   3.391  0.4630  0.2455  0.4207
 2092SOL    HW3 8367   3.175   0.324   3.270 -0.5114 -0.8248 -0.1926
 2092SOL    MW4 8368   3.159   0.311   3.355  0.0783 -0.2671  0.0106
 2093SOL     OW 8369   3.393   0.448   3.500  0.3379 -0.6511  0.0254
 2093SOL    HW2 8370   3.399   0.446   3.595  0.0738 -0.4479  0.0453
 2093SOL    HW3 8371   3.318   0.392   3.480  0.4653 -0.7887 -0.0700
 2093SOL    MW4 8372   3.384   0.440   3.510  0.3198 -0.6425  0.0154
 2094SOL     OW 8373   3.371   0.724   3.408 -0.0373 -0.4007 -0.2847
 2094SOL    HW2 8374   3.450   0.772   3.431  0.4992 -0.9881 -0.8640
 2094SOL    HW3 8375   3.383   0.638   3.448 -1.1277  0.0273  1.0050
 2094SOL    MW4 8376   3.383   0.719   3.416 -0.1104 -0.4217 -0.1910
 2095SOL     OW 8377   3.138   0.864   3.477 -0.2779  0.3140 -0.1894
 2095SOL    HW2 8378   3.153   0.955   3.451  0.0461  0.4188  0.3744
 2095SOL    HW3 8379   3.220   0.819   3.457 -0.1824  0.3013  0.2203
 2095SOL    MW4 8380   3.150   0.870   3.471 -0.2225  0.3261 -0.0609
 2096SOL     OW 8381   3.196   1.110   3.386 -0.2384  0.4782 -0.1555
 2096SOL    HW2 8382   3.280   1.136   3.423 -0.2046  0.1650 -0.0100
 2096SOL    HW3 8383   3.206   1.122   3.291 -0.1129  0.6727 -0.1170
 2096SOL    MW4 8384   3.208   1.115   3.378 -0.2174  0.4625 -0.1312
 2097SOL     OW 8385   3.407   1.231   3.481 -0.6524  0.2214 -0.1465
 2097SOL    HW2 8386   3.480   1.203   3.427  0.7038  2.5176  0.4148
 2097SOL    HW3 8387   3.390   1.322   3.454 -0.8986  0.9346  2.2211
 2097SOL    MW4 8388   3.414   1.239   3.471 -0.5059  0.6185  0.2400
 2098SOL     OW 8389   3.404   1.497   3.392 -0.3304  0.0498  0.1422
 2098SOL    HW2 8390   3.475   1.556   3.418 -0.7249 -0.3182  2.1352
 2098SOL    HW3 8391   3.324   1.546   3.411 -0.6470  0.4865 -2.1470
 2098SOL    MW4 8392   3.402   1.511   3.398 -0.4242  0.0589  0.1031
 2099SOL     OW 8393   3.160   1.593   3.457  0.5030 -0.2715  0.2977
 2099SOL    HW2 8394   3.151   1.687   3.439 -3.1233 -0.5820  0.0197
 2099SOL    HW3 8395   3.099   1.552   3.395  2.5530 -2.8788 -0.0376
 2099SOL    MW4 8396   3.151   1.600   3.446  0.2950 -0.6565  0.2168
 2100SOL     OW 8397   3.189   1.871   3.414  0.1166  0.3071 -0.3840
 2100SOL    HW2 8398   3.126   1.919   3.468 -0.2991 -1.1075  0.4215
 2100SOL    HW3 8399   3.182   1.911   3.328 -0.4653  1.4645  0.1837
 2100SOL    MW4 8400   3.180   1.882   3.410 -0.0150  0.2732 -0.2028
 2101SOL     OW 8401   3.389   2.033   3.535  0.0822  0.4881  0.3272
 2101SOL    HW2 8402   3.385   2.121   3.497 -0.5336  0.1860 -0.3048
 2101SOL    HW3 8403   3.327   1.982   3.484  0.8500 -0.4632  0.3336
 2101SOL    MW4 8404   3.381   2.038   3.523  0.1023  0.3227  0.2447
 2102SOL     OW 8405   3.376   2.278   3.399  0.2394  0.0547 -0.6018
 2102SOL    HW2 8406   3.433   2.326   3.460  0.7912 -0.8605 -0.3825
 2102SOL    HW3 8407   3.287   2.299   3.427  0.4651  1.3458 -0.8216
 2102SOL    MW4 8408   3.372   2.288   3.411  0.3420  0.1043 -0.6019
 2103SOL     OW 8409   3.122   2.369   3.506 -0.2227  0.7279  0.3676
 2103SOL    HW2 8410   3.119   2.447   3.449 -0.5598  0.8040  0.4873
 2103SOL    HW3 8411   3.035   2.330   3.496 -0.4904  1.0815  1.3069
 2103SOL    MW4 8412   3.110   2.374   3.497 -0.3025  0.7846  0.5073
 2104SOL     OW 8413   3.150   2.636   3.407 -0.3959 -0.1649  0.2075
 2104SOL    HW2 8414   3.236   2.673   3.421 -0.8495  1.1977 -0.5394
 2104SOL    HW3 8415   3.089   2.699   3.446 -1.0750 -0.9652  0.4679
 2104SOL    MW4 8416   3.153   2.649   3.414 -0.5453 -0.0907  0.1433
 2105SOL     OW 8417   3.379   2.780   3.483  0.3072 -0.1436 -0.0261
 2105SOL    HW2 8418   3.462   2.733   3.477  0.9526  0.8804  0.8011
 2105SOL    HW3 8419   3.398   2.866   3.445 -0.3022  0.1869  0.4177
 2105SOL    MW4 8420   3.392   2.785   3.477  0.3120  0.0351  0.1416
 2106SOL     OW 8421   3.416   3.049   3.392  0.1483  0.3858 -0.1627
 2106SOL    HW2 8422   3.494   3.091   3.429 -0.6414  1.1904  0.6352
 2106SOL    HW3 8423   3.344   3.079   3.448 -0.6477 -0.8754 -0.4831
 2106SOL    MW4 8424   3.417   3.059   3.404 -0.0609  0.3256 -0.0997
 2107SOL     OW 8425   3.184   3.168   3.510  0.0327 -0.1007  0.2258
 2107SOL    HW2 8426   3.194   3.260   3.484  1.3791 -0.5605 -0.9594
 2107SOL    HW3 8427   3.107   3.138   3.462  0.8523 -0.1665 -1.0796
 2107SOL    MW4 8428   3.175   3.176   3.500  0.3185 -0.1700 -0.1028
 2108SOL     OW 8429   3.177   3.427   3.389 -0.1491  0.2909 -0.2852
 2108SOL    HW2 8430   3.098   3.476   3.413 -0.2099 -0.0515  0.2121
 2108SOL    HW3 8431   3.173   3.421   3.293  0.0084  1.4989 -0.3705
 2108SOL    MW4 8432   3.166   3.432   3.379 -0.1364  0.4051 -0.2308
 2109SOL     OW 8433   3.404   3.578   3.472 -0.0236  0.0427 -0.4057
 2109SOL    HW2 8434   3.401   3.666   3.436 -0.9667  0.5696  0.9224
 2109SOL    HW3 8435   3.320   3.539   3.448  0.0879 -0.2358 -0.3485
 2109SOL    MW4 8436   3.393   3.584   3.464 -0.1333  0.0755 -0.2229
 2110SOL     OW 8437   3.393   3.854   3.386 -0.1068  0.2552 -0.1623
 2110SOL    HW2 8438   3.472   3.887   3.428 -0.9512  1.5901  0.3883
 2110SOL    HW3 8439   3.321   3.893   3.435 -1.1074  1.0260 -2.2166
 2110SOL    MW4 8440   3.394   3.863   3.398 -0.3502  0.5330 -0.3607
 2111SOL     OW 8441   3.172   3.959   3.524  0.2939 -0.0158  0.0420
 2111SOL    HW2 8442   3.186   3.973   3.618 -0.2713  0.4679  0.0563
 2111SOL    HW3 8443   3.160   4.047   3.488  0.0343 -0.2361 -0.4113
 2111SOL    MW4 8444   3.173   3.972   3.532  0.1851  0.0190 -0.0159
 2112SOL     OW 8445   3.161   4.215   3.401  0.0089 -0.3925  0.3357
 2112SOL    HW2 8446   3.243   4.254   3.431  0.1259  0.5909 -1.1956
 2112SOL    HW3 8447   3.093   4.261   3.451  0.2031  1.1532 -0.7854
 2112SOL    MW4 8448   3.163   4.226   3.412  0.0500 -0.0588 -0.0142
 2113SOL     OW 8449   3.391   4.342   3.488 -0.0251  0.1574 -0.0824
 2113SOL    HW2 8450   3.386   4.349   3.583 -1.0839  0.0010 -0.1184
 2113SOL    HW3 8451   3.379   4.431   3.457 -1.2828 -0.0153 -0.1176
 2113SOL    MW4 8452   3.389   4.355   3.497 -0.3308  0.1140 -0.0918
 2114SOL     OW 8453   3.864   4.593   3.376 -0.0562 -0.1035 -0.0911
 2114SOL    HW2 8454   3.776   4.627   3.397  0.3595  1.2148 -0.4506
 2114SOL    HW3 8455   3.873   4.608   3.282  0.7284  0.1797  0.0292
 2114SOL    MW4 8456   3.853   4.600   3.366  0.1022  0.1078 -0.1227
 2115SOL     OW 8457   3.617   0.034   3.460  0.1251  0.2908 -0.1543
 2115SOL    HW2 8458   3.607   0.118   3.415 -1.1681  0.5126  0.5495
 2115SOL    HW3 8459   3.533  -0.010   3.449  0.3829 -0.3965  0.5420
 2115SOL    MW4 8460   3.605   0.039   3.452 -0.0115  0.2294  0.0304
 2116SOL     OW 8461   3.623   0.325   3.391 -0.2655  0.3589  0.3058
 2116SOL    HW2 8462   3.692   0.371   3.439 -0.3784  0.0911  0.7290
 2116SOL    HW3 8463   3.541   0.364   3.422 -0.4864 -1.6367  2.3223
 2116SOL    MW4 8464   3.621   0.337   3.401 -0.3095  0.0603  0.6277
 2117SOL     OW 8465   3.823   0.482   3.527  0.4244  0.2723 -0.0703
 2117SOL    HW2 8466   3.827   0.504   3.620 -0.5177  2.3590 -0.4970
 2117SOL    HW3 8467   3.900   0.426   3.513  0.5274 -0.1487  1.9704
 2117SOL    MW4 8468   3.834   0.478   3.538  0.3137  0.4921  0.1426
 2118SOL     OW 8469   3.840   0.741   3.410  0.2124 -0.5178  0.2600
 2118SOL    HW2 8470   3.895   0.786   3.475  1.0414 -0.2005 -0.6478
 2118SOL    HW3 8471   3.844   0.648   3.435 -1.5399 -0.1230  2.1657
 2118SOL    MW4 8472   3.848   0.734   3.422  0.0906 -0.4239  0.3917
 2119SOL     OW 8473   3.605   0.877   3.471  0.0391 -0.3876  0.5817
 2119SOL    HW2 8474   3.616   0.890   3.565  1.5013 -0.1570  0.3984
 2119SOL    HW3 8475   3.680   0.822   3.446 -0.0264  0.0245 -0.5340
 2119SOL    MW4 8476   3.617   0.871   3.480  0.2234 -0.3028  0.4103
 2120SOL     OW 8477   3.635   1.146   3.383  0.2549  0.0016 -0.6177
 2120SOL    HW2 8478   3.618   1.054   3.407  1.3356 -0.1588 -0.4626
 2120SOL    HW3 8479   3.626   1.148   3.288 -0.8615 -0.0256 -0.5284
 2120SOL    MW4 8480   3.631   1.134   3.374  0.2502 -0.0231 -0.5855
 2121SOL     OW 8481   3.805   1.326   3.500  0.0412  0.2677  0.5489
 2121SOL    HW2 8482   3.798   1.317   3.595  0.4536 -0.2166  0.5350
 2121SOL    HW3 8483   3.747   1.258   3.465  1.0938 -0.5970  0.4539
 2121SOL    MW4 8484   3.796   1.316   3.508  0.2345  0.0897  0.5345
 2122SOL     OW 8485   3.866   1.563   3.385 -0.3765  0.2992  0.0181
 2122SOL    HW2 8486   3.934   1.606   3.438 -1.7260  0.8950  1.2967
 2122SOL    HW3 8487   3.859   1.475   3.424  0.4079 -0.1479 -0.8153
 2122SOL    MW4 8488   3.874   1.557   3.397 -0.4511  0.3188  0.0768
 2123SOL     OW 8489   3.615   1.646   3.505 -0.3319  0.1825 -0.6032
 2123SOL    HW2 8490   3.607   1.737   3.476 -0.0835  0.2655 -0.4181
 2123SOL    HW3 8491   3.701   1.619   3.472 -0.3215  0.0777 -0.4870
 2123SOL    MW4 8492   3.626   1.655   3.497 -0.2978  0.1796 -0.5634
 2124SOL     OW 8493   3.603   1.906   3.392  0.0201  0.0946 -0.4764
 2124SOL    HW2 8494   3.684   1.932   3.435  0.7483 -0.4354 -1.5200
 2124SOL    HW3 8495   3.535   1.958   3.436  0.8624  0.2662  0.6559
 2124SOL    MW4 8496   3.604   1.916   3.404  0.2273  0.0473 -0.4647
 2125SOL     OW 8497   3.813   2.055   3.528 -0.1008 -0.0361 -0.0080
 2125SOL    HW2 8498   3.830   2.073   3.620 -0.1362  2.3671 -0.4177
 2125SOL    HW3 8499   3.894   2.016   3.495  0.4231  0.4089  0.7421
 2125SOL    MW4 8500   3.826   2.052   3.536 -0.0364  0.3397  0.0369
 2126SOL     OW 8501   3.788   2.312   3.433  0.0006  0.1246  0.1238
 2126SOL    HW2 8502   3.861   2.364   3.467  0.9560  0.7246 -2.7413
 2126SOL    HW3 8503   3.812   2.221   3.453  1.0691  0.3860  0.0560
 2126SOL    MW4 8504   3.801   2.307   3.440  0.2676  0.2383 -0.2631
 2127SOL     OW 8505   3.577   2.417   3.555  0.5154 -0.0700 -0.0570
 2127SOL    HW2 8506   3.571   2.510   3.534  1.9719 -0.1017 -0.6520
 2127SOL    HW3 8507   3.654   2.386   3.507 -0.2925 -1.7088 -0.3257
 2127SOL    MW4 8508   3.587   2.425   3.546  0.6010 -0.2904 -0.1710
 2128SOL     OW 8509   3.625   2.668   3.431  0.4984 -0.6156  0.0665
 2128SOL    HW2 8510   3.712   2.705   3.442  0.8547 -1.0488 -1.1638
 2128SOL    HW3 8511   3.623   2.639   3.339 -0.9413 -0.5792  0.0737
 2128SOL    MW4 8512   3.636   2.669   3.420  0.3554 -0.6680 -0.0949
 2129SOL     OW 8513   3.856   2.814   3.509  0.3759 -0.1885 -0.0540
 2129SOL    HW2 8514   3.836   2.827   3.601  2.0953 -0.3301  0.3466
 2129SOL    HW3 8515   3.857   2.902   3.471 -2.7015 -0.2858 -0.4630
 2129SOL    MW4 8516   3.853   2.827   3.516  0.1967 -0.2200 -0.0551
 2130SOL     OW 8517   3.822   3.070   3.425 -0.1055  0.5999  0.2258
 2130SOL    HW2 8518   3.900   3.121   3.445  0.0726  1.0189 -1.4308
 2130SOL    HW3 8519   3.822   3.063   3.330 -1.9608  0.4010  0.2164
 2130SOL    MW4 8520   3.832   3.076   3.415 -0.3268  0.6289  0.0060
 2131SOL     OW 8521   3.598   3.189   3.566  0.1376  0.1548  0.2083
 2131SOL    HW2 8522   3.588   3.258   3.501  1.5731 -0.9312 -1.1964
 2131SOL    HW3 8523   3.690   3.162   3.559 -0.6963 -2.7511 -0.1452
 2131SOL    MW4 8524   3.609   3.195   3.557  0.2170 -0.3719 -0.0236
 2132SOL     OW 8525   3.585   3.408   3.393 -0.0206  0.3313 -0.0547
 2132SOL    HW2 8526   3.504   3.455   3.409 -0.1272 -0.0553  0.5436
 2132SOL    HW3 8527   3.615   3.441   3.308 -0.6003  0.7537 -0.1001
 2132SOL    MW4 8528   3.578   3.418   3.384 -0.1111  0.3360  0.0182
 2133SOL     OW 8529   3.802   3.551   3.500 -0.4507  0.2053  0.2304
 2133SOL    HW2 8530   3.797   3.539   3.595 -0.3060  0.2808  0.2473
 2133SOL    HW3 8531   3.717   3.521   3.468  0.3733 -2.1223  0.1366
 2133SOL    MW4 8532   3.790   3.546   3.509 -0.3229 -0.0918  0.2203
 2134SOL     OW 8533   3.824   3.808   3.397  0.5409 -0.0045  0.2081
 2134SOL    HW2 8534   3.757   3.863   3.437  0.7841  0.1160  0.4484
 2134SOL    HW3 8535   3.806   3.720   3.430 -0.1509 -0.1629 -0.5611
 2134SOL    MW4 8536   3.813   3.804   3.407  0.4817 -0.0095  0.1383
 2135SOL     OW 8537   3.615   3.969   3.495 -0.0635  0.3500 -0.3652
 2135SOL    HW2 8538   3.609   3.975   3.590  0.3739  0.9527 -0.3708
 2135SOL    HW3 8539   3.629   4.059   3.466  0.7153  0.0563 -0.9282
 2135SOL    MW4 8540   3.616   3.982   3.504  0.0970  0.3908 -0.4402
 2136SOL     OW 8541   3.621   4.207   3.374  0.2745  0.5024  0.1855
 2136SOL    HW2 8542   3.544   4.255   3.404 -0.1992  0.1571 -0.4502
 2136SOL    HW3 8543   3.615   4.210   3.278  0.2134 -0.8371  0.1383
 2136SOL    MW4 8544   3.610   4.213   3.365  0.2039  0.2801  0.0954
 2137SOL     OW 8545   3.806   4.362   3.521  0.4536  0.0922  0.2537
 2137SOL    HW2 8546   3.740   4.322   3.465 -0.9319  2.1990  0.3306
 2137SOL    HW3 8547   3.825   4.446   3.478  1.0415  0.7238  1.7308
 2137SOL    MW4 8548   3.800   4.368   3.508  0.3484  0.4535  0.4587
 2138SOL     OW 8549   4.294   4.657   3.375 -0.0503  0.2879  0.0119
 2138SOL    HW2 8550   4.293   4.568   3.409  0.7359  0.2169 -0.1464
 2138SOL    HW3 8551   4.380   4.691   3.399  0.8809 -0.0771 -2.6944
 2138SOL    MW4 8552   4.305   4.650   3.383  0.1763  0.2303 -0.3660
 2139SOL     OW 8553   4.052   0.064   3.515  0.4130  0.2203  0.0363
 2139SOL    HW2 8554   4.138   0.038   3.481 -0.5413 -2.5409 -0.3374
 2139SOL    HW3 8555   3.990   0.006   3.472 -1.5056  1.1544  1.4618
 2139SOL    MW4 8556   4.055   0.053   3.505  0.0340 -0.0208  0.1750
 2140SOL     OW 8557   4.049   0.340   3.463  0.3374  0.1846 -0.1477
 2140SOL    HW2 8558   4.048   0.249   3.492 -1.4198  0.8377  1.9250
 2140SOL    HW3 8559   4.036   0.335   3.368 -0.8732 -1.6727  0.1008
 2140SOL    MW4 8560   4.047   0.328   3.454 -0.0542  0.0257  0.1585
 2141SOL     OW 8561   4.266   0.533   3.497  0.0762  0.0946  0.2093
 2141SOL    HW2 8562   4.237   0.618   3.465 -0.6550  0.7224  2.4422
 2141SOL    HW3 8563   4.196   0.473   3.471 -0.9759  0.7651  1.4580
 2141SOL    MW4 8564   4.253   0.536   3.489 -0.1591  0.2659  0.6687
 2142SOL     OW 8565   4.246   0.813   3.406  0.2571 -0.6074  0.0282
 2142SOL    HW2 8566   4.328   0.851   3.436 -0.2127 -0.2978  0.9636
 2142SOL    HW3 8567   4.259   0.796   3.313  0.5179  1.7864 -0.4131
 2142SOL    MW4 8568   4.258   0.816   3.398  0.2295 -0.2507  0.0934
 2143SOL     OW 8569   4.021   0.894   3.559 -0.1619 -0.1420  0.6388
 2143SOL    HW2 8570   4.001   0.976   3.514 -2.3562 -1.0256 -0.0196
 2143SOL    HW3 8571   4.091   0.855   3.506  0.2615  0.8651  0.4386
 2143SOL    MW4 8572   4.028   0.900   3.546 -0.3956 -0.1257  0.5255
 2144SOL     OW 8573   4.015   1.156   3.406  0.0636 -0.3443 -0.1561
 2144SOL    HW2 8574   4.092   1.211   3.421 -0.0250 -0.0164 -0.9008
 2144SOL    HW3 8575   3.941   1.213   3.429 -0.0748  0.1741 -1.8592
 2144SOL    MW4 8576   4.016   1.171   3.411  0.0337 -0.2326 -0.4791
 2145SOL     OW 8577   4.252   1.296   3.495 -0.2833 -0.3680  0.1311
 2145SOL    HW2 8578   4.284   1.385   3.480 -0.9031  0.1584  1.8246
 2145SOL    HW3 8579   4.328   1.241   3.480 -0.3450  0.2732 -2.7538
 2145SOL    MW4 8580   4.266   1.301   3.491 -0.3732 -0.2139 -0.0261
 2146SOL     OW 8581   4.298   1.552   3.428 -0.1775  0.1185 -0.2021
 2146SOL    HW2 8582   4.214   1.583   3.461 -1.0800 -2.3797 -0.1073
 2146SOL    HW3 8583   4.286   1.547   3.333 -0.3953 -1.0180 -0.1143
 2146SOL    MW4 8584   4.286   1.556   3.420 -0.3253 -0.3611 -0.1780
 2147SOL     OW 8585   4.076   1.681   3.515 -0.2888 -0.2604 -0.1036
 2147SOL    HW2 8586   4.085   1.669   3.610  0.9276 -1.1021 -0.3267
 2147SOL    HW3 8587   4.083   1.776   3.503  0.3218 -0.2184  0.5572
 2147SOL    MW4 8588   4.078   1.692   3.526 -0.0478 -0.3659 -0.0458
 2148SOL     OW 8589   4.047   1.952   3.436 -0.1138 -0.1154  0.2360
 2148SOL    HW2 8590   4.138   1.982   3.436  0.6393 -2.2683  1.9234
 2148SOL    HW3 8591   4.023   1.947   3.344  0.7332  2.5734 -0.1843
 2148SOL    MW4 8592   4.056   1.955   3.424  0.0973 -0.0447  0.4032
 2149SOL     OW 8593   4.319   2.045   3.534  0.0162  0.1735  0.0720
 2149SOL    HW2 8594   4.340   2.136   3.513  0.9806  0.0741  0.5671
 2149SOL    HW3 8595   4.387   1.994   3.491  0.5235 -0.1910  1.2777
 2149SOL    MW4 8596   4.330   2.050   3.526  0.2104  0.1123  0.2964
 2150SOL     OW 8597   4.277   2.330   3.442 -0.7557  0.5480 -0.2410
 2150SOL    HW2 8598   4.196   2.374   3.466  0.0340  1.9366 -0.0757
 2150SOL    HW3 8599   4.285   2.345   3.347  0.5871  2.6111  0.1712
 2150SOL    MW4 8600   4.268   2.337   3.432 -0.4743  1.0034 -0.1648
 2151SOL     OW 8601   4.030   2.420   3.512 -0.6474  0.0255 -0.3825
 2151SOL    HW2 8602   4.037   2.435   3.607  0.3292  0.6812 -0.5433
 2151SOL    HW3 8603   4.037   2.508   3.474  0.9776 -0.4291 -1.1608
 2151SOL    MW4 8604   4.032   2.434   3.520 -0.3042  0.0520 -0.5064
 2152SOL     OW 8605   4.063   2.663   3.396 -0.3339  0.2546 -0.1823
 2152SOL    HW2 8606   4.144   2.698   3.433 -0.8994  0.5196  0.8494
 2152SOL    HW3 8607   3.994   2.718   3.435 -1.0269 -0.1589 -0.8100
 2152SOL    MW4 8608   4.064   2.675   3.406 -0.5000  0.2350 -0.1290
 2153SOL     OW 8609   4.287   2.785   3.491  0.6627  0.0276  0.2653
 2153SOL    HW2 8610   4.295   2.807   3.583  0.9579  0.1124  0.2191
 2153SOL    HW3 8611   4.376   2.762   3.463  0.6105  0.2021 -0.0484
 2153SOL    MW4 8612   4.300   2.785   3.499  0.6948  0.0618  0.2178
 2154SOL     OW 8613   4.272   3.066   3.425 -0.5897 -0.0913  0.4473
 2154SOL    HW2 8614   4.266   2.975   3.454  2.8864 -0.5080  0.0799
 2154SOL    HW3 8615   4.287   3.059   3.330  0.4316  0.8088  0.5362
 2154SOL    MW4 8616   4.274   3.053   3.416  0.0037 -0.0275  0.4106
 2155SOL     OW 8617   4.055   3.197   3.510  0.2210  0.1257 -0.1309
 2155SOL    HW2 8618   4.079   3.283   3.477 -0.7636  0.2509 -0.5500
 2155SOL    HW3 8619   4.125   3.139   3.479 -0.0618  0.4556 -1.4237
 2155SOL    MW4 8620   4.067   3.200   3.502  0.0538  0.1857 -0.3568
 2156SOL     OW 8621   4.049   3.455   3.414 -0.4848 -0.1011  0.6860
 2156SOL    HW2 8622   4.108   3.511   3.465 -0.0712  1.2125 -1.2100
 2156SOL    HW3 8623   3.961   3.485   3.438 -0.3158  0.0877  1.0831
 2156SOL    MW4 8624   4.045   3.466   3.424 -0.4079  0.0971  0.4882
 2157SOL     OW 8625   4.269   3.599   3.533  0.2071  0.7020 -0.2805
 2157SOL    HW2 8626   4.276   3.606   3.628  1.8122  0.1883 -0.3393
 2157SOL    HW3 8627   4.292   3.686   3.500 -1.4999  1.2059 -0.1582
 2157SOL    MW4 8628   4.273   3.611   3.541  0.1937  0.7007 -0.2721
 2158SOL     OW 8629   4.290   3.887   3.458  0.3580 -0.2456 -0.3360
 2158SOL    HW2 8630   4.364   3.943   3.482 -0.0058  0.2416 -0.3414
 2158SOL    HW3 8631   4.283   3.896   3.363  0.0768 -0.0174 -0.2953
 2158SOL    MW4 8632   4.299   3.896   3.449  0.2729 -0.1512 -0.3313
 2159SOL     OW 8633   4.031   3.956   3.543 -0.1028  0.1561 -0.3443
 2159SOL    HW2 8634   4.114   3.912   3.527  0.6879  1.5338 -0.1358
 2159SOL    HW3 8635   3.969   3.912   3.486  0.7901 -0.8245 -0.5708
 2159SOL    MW4 8636   4.034   3.945   3.534  0.1193  0.2085 -0.3467
 2160SOL     OW 8637   4.050   4.216   3.423 -0.5157  1.0905 -0.0242
 2160SOL    HW2 8638   4.058   4.136   3.474  1.0134  1.5536  0.5017
 2160SOL    HW3 8639   3.964   4.251   3.446 -1.6781 -0.9654 -1.1266
 2160SOL    MW4 8640   4.040   4.210   3.433 -0.4673  0.8803 -0.1003
 2161SOL     OW 8641   4.276   4.388   3.477  0.2126  0.1178 -0.7668
 2161SOL    HW2 8642   4.287   4.379   3.572  0.3789  0.0008 -0.7952
 2161SOL    HW3 8643   4.200   4.334   3.457  0.6014 -0.4294 -0.7948
 2161SOL    MW4 8644   4.268   4.379   3.487  0.2859  0.0301 -0.7742
 2162SOL     OW 8645   0.238   4.623   3.823  0.3169  0.2429  0.3574
 2162SOL    HW2 8646   0.254   4.608   3.917  0.6069  0.3712  0.3298
 2162SOL    HW3 8647   0.151   4.661   3.819  0.4435  0.5595  0.6055
 2162SOL    MW4 8648   0.229   4.626   3.835  0.3718  0.3016  0.3865
 2163SOL     OW 8649   4.476   0.087   3.758 -0.2334  0.0348  0.2139
 2163SOL    HW2 8650   4.504   0.172   3.793 -0.2356 -0.0833  0.5032
 2163SOL    HW3 8651   4.484   0.096   3.663 -0.3780  0.4105  0.2368
 2163SOL    MW4 8652   4.480   0.099   3.750 -0.2527  0.0688  0.2551
 2164SOL     OW 8653   0.016   0.345   3.871  0.5836 -0.8016  0.0598
 2164SOL    HW2 8654  -0.061   0.396   3.843 -0.8270 -2.7237  0.3576
 2164SOL    HW3 8655   0.090   0.392   3.832 -0.7283  1.0383 -0.3209
 2164SOL    MW4 8656   0.016   0.358   3.862  0.2244 -0.8125  0.0488
 2165SOL     OW 8657   0.242   0.465   3.767  0.1171  0.0403 -0.0602
 2165SOL    HW2 8658   0.228   0.550   3.809 -3.2148 -0.0620 -0.8035
 2165SOL    HW3 8659   0.236   0.483   3.673 -1.2865 -1.0756 -0.2126
 2165SOL    MW4 8660   0.239   0.479   3.760 -0.5077 -0.1204 -0.1784
 2166SOL     OW 8661   0.237   0.744   3.867  0.8153  0.5594  0.4088
 2166SOL    HW2 8662   0.237   0.762   3.961  0.1648  1.8243  0.1812
 2166SOL    HW3 8663   0.174   0.806   3.831  0.2671 -0.6454 -0.7287
 2166SOL    MW4 8664   0.229   0.755   3.875  0.6571  0.5674  0.2287
 2167SOL     OW 8665   0.018   0.895   3.776 -0.1841  0.1580  0.5240
 2167SOL    HW2 8666  -0.049   0.835   3.807 -0.0775  0.0074  0.4607
 2167SOL    HW3 8667   0.011   0.971   3.834 -0.0598 -0.0754  0.8434
 2167SOL    MW4 8668   0.008   0.897   3.788 -0.1536  0.1073  0.5578
 2168SOL     OW 8669   0.004   1.143   3.890 -0.0749  0.2946  0.1222
 2168SOL    HW2 8670  -0.074   1.179   3.846 -0.5485 -0.1193  0.6156
 2168SOL    HW3 8671   0.078   1.185   3.845 -0.6072  1.6558  0.4766
 2168SOL    MW4 8672   0.003   1.154   3.878 -0.2076  0.4196  0.2340
 2169SOL     OW 8673   0.250   1.275   3.807  0.2917 -0.0808  0.2166
 2169SOL    HW2 8674   0.254   1.364   3.842  0.2168 -0.6529  1.7190
 2169SOL    HW3 8675   0.253   1.287   3.712  1.0743  1.4785  0.4112
 2169SOL    MW4 8676   0.251   1.289   3.799  0.3851  0.0495  0.4405
 2170SOL     OW 8677   0.262   1.545   3.889  0.7815 -0.0638  0.0062
 2170SOL    HW2 8678   0.244   1.577   3.978  0.9020 -0.1047  0.0455
 2170SOL    HW3 8679   0.190   1.579   3.836  0.1553 -0.8925  0.3140
 2170SOL    MW4 8680   0.250   1.554   3.894  0.7148 -0.1785  0.0520
 2171SOL     OW 8681   0.019   1.642   3.792 -0.1453  0.2638  0.2782
 2171SOL    HW2 8682   0.046   1.730   3.819  0.0094  0.2610  0.1310
 2171SOL    HW3 8683   0.029   1.642   3.697 -1.7575  0.6349  0.0817
 2171SOL    MW4 8684   0.024   1.654   3.783 -0.3376  0.3124  0.2328
 2172SOL     OW 8685   0.050   1.883   3.909 -0.0902  0.0671 -0.5027
 2172SOL    HW2 8686   0.039   1.893   4.004  0.1342  1.3944 -0.6114
 2172SOL    HW3 8687  -0.026   1.926   3.871  0.2898  0.3454 -0.9503
 2172SOL    MW4 8688   0.039   1.890   3.917 -0.0104  0.2789 -0.5761
 2173SOL     OW 8689   0.248   2.027   3.792  0.0355 -0.6738 -0.6521
 2173SOL    HW2 8690   0.248   2.105   3.847  1.6361 -0.3971 -1.0168
 2173SOL    HW3 8691   0.174   1.975   3.824 -0.0518  0.2376  0.6653
 2173SOL    MW4 8692   0.238   2.030   3.803  0.2352 -0.5171 -0.5264
 2174SOL     OW 8693   0.254   2.279   3.901  0.4362 -0.4910 -0.1155
 2174SOL    HW2 8694   0.250   2.279   3.997  0.4759 -0.0364 -0.1136
 2174SOL    HW3 8695   0.176   2.327   3.874 -0.6241 -2.2863 -0.3623
 2174SOL    MW4 8696   0.243   2.285   3.910  0.3015 -0.6679 -0.1478
 2175SOL     OW 8697   0.035   2.422   3.838 -0.0447 -0.0460  0.3389
 2175SOL    HW2 8698  -0.053   2.389   3.855 -0.3337  0.1753 -0.6996
 2175SOL    HW3 8699   0.033   2.512   3.871 -0.7630  0.5541 -1.2589
 2175SOL    MW4 8700   0.023   2.430   3.845 -0.1776  0.0624 -0.0089
 2176SOL     OW 8701   0.015   2.674   3.932 -0.2752  0.0034  0.1838
 2176SOL    HW2 8702   0.010   2.660   4.027 -2.0484  1.3583  0.3084
 2176SOL    HW3 8703   0.088   2.736   3.921 -0.7761  0.7147  0.7785
 2176SOL    MW4 8704   0.024   2.681   3.943 -0.5752  0.2760  0.2787
 2177SOL     OW 8705   0.233   2.830   3.873 -0.2313 -0.1360  0.1850
 2177SOL    HW2 8706   0.318   2.794   3.899  0.3241  0.5286 -0.6631
 2177SOL    HW3 8707   0.229   2.815   3.778 -0.5962  0.7727  0.0499
 2177SOL    MW4 8708   0.244   2.823   3.864 -0.2062  0.0716  0.0553
 2178SOL     OW 8709   0.175   3.083   3.960  0.2014  0.2508 -0.5682
 2178SOL    HW2 8710   0.182   2.996   3.922  1.0205  0.4634 -0.9178
 2178SOL    HW3 8711   0.185   3.070   4.054  1.8186  0.1329 -0.7497
 2178SOL    MW4 8712   0.177   3.070   3.967  0.5229  0.2633 -0.6383
 2179SOL     OW 8713   4.453   3.197   3.821 -0.2106  0.3854 -0.2451
 2179SOL    HW2 8714   4.517   3.159   3.881 -0.4891 -0.4351 -0.4575
 2179SOL    HW3 8715   4.478   3.163   3.735 -1.0202 -0.0466 -0.3081
 2179SOL    MW4 8716   4.465   3.188   3.817 -0.3542  0.2202 -0.2814
 2180SOL     OW 8717   0.012   3.457   3.893  0.1665  0.3607 -0.2222
 2180SOL    HW2 8718   0.087   3.509   3.865 -0.0452  0.3599 -0.8075
 2180SOL    HW3 8719   0.025   3.372   3.851  0.5260 -0.0734  0.7530
 2180SOL    MW4 8720   0.024   3.453   3.884  0.1860  0.3033 -0.1708
 2181SOL     OW 8721   0.236   3.589   3.775 -0.5487  0.0714  0.0052
 2181SOL    HW2 8722   0.317   3.556   3.811  1.0379  0.9477 -2.6247
 2181SOL    HW3 8723   0.231   3.680   3.805 -0.7180 -0.0707  0.4103
 2181SOL    MW4 8724   0.246   3.597   3.784 -0.3617  0.1683 -0.2884
 2182SOL     OW 8725   0.204   3.831   3.869  0.2776 -0.2457 -0.1192
 2182SOL    HW2 8726   0.216   3.822   3.964 -3.4008  1.0272  0.5569
 2182SOL    HW3 8727   0.285   3.871   3.838  1.6633 -0.9746  2.4477
 2182SOL    MW4 8728   0.216   3.835   3.878 -0.0249 -0.1739  0.3087
 2183SOL     OW 8729   0.009   4.008   3.844  0.2883  0.0942  0.0205
 2183SOL    HW2 8730  -0.067   3.952   3.854  0.9051 -0.7110  0.2121
 2183SOL    HW3 8731   0.084   3.952   3.862  0.8488  1.2687  1.4693
 2183SOL    MW4 8732   0.009   3.993   3.848  0.4436  0.1430  0.2369
 2184SOL     OW 8733   0.040   4.286   3.861  0.5522 -0.0629 -0.0859
 2184SOL    HW2 8734   0.118   4.317   3.815  0.6048 -0.4758 -0.2741
 2184SOL    HW3 8735   0.038   4.192   3.845  0.3423 -0.1474  0.4117
 2184SOL    MW4 8736   0.050   4.278   3.853  0.5314 -0.1285 -0.0451
 2185SOL     OW 8737   0.253   4.374   3.706  0.3542  0.3138  0.0914
 2185SOL    HW2 8738   0.326   4.325   3.745  0.4929 -0.1443 -0.7249
 2185SOL    HW3 8739   0.253   4.458   3.752  0.7232 -0.0857  0.8376
 2185SOL    MW4 8740   0.263   4.378   3.718  0.4212  0.2006  0.0822
 2186SOL     OW 8741   0.690   4.662   3.883 -0.0956  0.2808 -0.2794
 2186SOL    HW2 8742   0.693   4.572   3.850  1.0362  0.0854  0.3102
 2186SOL    HW3 8743   0.608   4.697   3.850 -0.2528 -0.7730 -1.0431
 2186SOL    MW4 8744   0.680   4.655   3.874  0.0330  0.1160 -0.3023
 2187SOL     OW 8745   0.459   0.100   3.764 -0.3584  0.0579 -0.0437
 2187SOL    HW2 8746   0.440   0.190   3.789  0.3345  0.0418  0.5377
 2187SOL    HW3 8747   0.383   0.050   3.792  0.3078  0.0699  1.8603
 2187SOL    MW4 8748   0.447   0.105   3.771 -0.1791  0.0573  0.2843
 2188SOL     OW 8749   0.483   0.368   3.864 -0.2826  0.7094  0.4677
 2188SOL    HW2 8750   0.550   0.420   3.821  0.5001 -0.6697 -0.0067
 2188SOL    HW3 8751   0.400   0.403   3.831  0.2197  2.0153  0.5979
 2188SOL    MW4 8752   0.481   0.379   3.854 -0.1130  0.6997  0.4223
 2189SOL     OW 8753   0.697   0.490   3.744  0.2374  0.1170 -0.2770
 2189SOL    HW2 8754   0.759   0.428   3.782 -0.0149  0.5435  0.8873
 2189SOL    HW3 8755   0.717   0.573   3.788 -0.7062  0.4000 -0.3755
 2189SOL    MW4 8756   0.708   0.493   3.755  0.0796  0.2106 -0.1364
 2190SOL     OW 8757   0.711   0.735   3.889  0.1014 -0.4707  0.7859
 2190SOL    HW2 8758   0.695   0.751   3.982 -0.8638 -0.1137  0.5755
 2190SOL    HW3 8759   0.638   0.779   3.845  1.2976  0.5721 -0.2191
 2190SOL    MW4 8760   0.699   0.743   3.896  0.1319 -0.2860  0.6255
 2191SOL     OW 8761   0.471   0.859   3.788  0.0680  0.2542 -0.3695
 2191SOL    HW2 8762   0.476   0.943   3.832  0.8418 -0.2966  0.6086
 2191SOL    HW3 8763   0.398   0.814   3.830  0.8264 -0.2833  0.3938
 2191SOL    MW4 8764   0.462   0.864   3.799  0.2702  0.1106 -0.1397
 2192SOL     OW 8765   0.479   1.111   3.922 -0.2336  0.2291  0.2194
 2192SOL    HW2 8766   0.546   1.179   3.915 -0.8239  0.7602 -0.2807
 2192SOL    HW3 8767   0.398   1.153   3.894 -0.8332 -0.3464  1.0508
 2192SOL    MW4 8768   0.477   1.126   3.917 -0.3906  0.2232  0.2631
 2193SOL     OW 8769   0.647   1.285   3.811 -0.4791 -0.0183 -0.0483
 2193SOL    HW2 8770   0.724   1.229   3.818 -2.2131 -2.4309  0.6480
 2193SOL    HW3 8771   0.632   1.294   3.717  1.4074  1.6445 -0.2349
 2193SOL    MW4 8772   0.655   1.279   3.799 -0.4590 -0.1172  0.0189
 2194SOL     OW 8773   0.718   1.545   3.900 -0.1607 -0.3353  0.1215
 2194SOL    HW2 8774   0.792   1.574   3.847 -0.2274  0.4022  0.4255
 2194SOL    HW3 8775   0.701   1.455   3.870  0.3790 -0.2492 -0.4623
 2194SOL    MW4 8776   0.726   1.537   3.889 -0.0983 -0.2267  0.0846
 2195SOL     OW 8777   0.485   1.652   3.755  0.0025  0.6237 -0.2939
 2195SOL    HW2 8778   0.567   1.620   3.792  0.6254  2.8456  0.3362
 2195SOL    HW3 8779   0.417   1.609   3.806  0.7202 -1.7464 -1.2464
 2195SOL    MW4 8780   0.487   1.642   3.767  0.1794  0.6041 -0.3364
 2196SOL     OW 8781   0.499   1.894   3.894  0.2524 -0.2827  0.0043
 2196SOL    HW2 8782   0.507   1.807   3.853 -0.4354 -0.3893  0.0945
 2196SOL    HW3 8783   0.425   1.934   3.849  0.6848  0.3348 -0.1654
 2196SOL    MW4 8784   0.490   1.888   3.882  0.2187 -0.2153 -0.0062
 2197SOL     OW 8785   0.680   2.033   3.749 -0.1638  0.4549  0.4853
 2197SOL    HW2 8786   0.688   2.122   3.785  0.5833  0.4930  0.2375
 2197SOL    HW3 8787   0.612   1.992   3.803 -0.6498  1.2315  0.4868
 2197SOL    MW4 8788   0.672   2.039   3.761 -0.1293  0.5624  0.4528
 2198SOL     OW 8789   0.703   2.288   3.854  0.1443 -0.2461 -0.2327
 2198SOL    HW2 8790   0.776   2.341   3.821  0.4436  0.0217  0.8576
 2198SOL    HW3 8791   0.626   2.343   3.841  0.4402  0.4049  0.7853
 2198SOL    MW4 8792   0.702   2.302   3.848  0.2228 -0.1249  0.0455
 2199SOL     OW 8793   0.461   2.423   3.809 -0.2219 -0.0361 -0.0779
 2199SOL    HW2 8794   0.384   2.372   3.833  0.7970 -2.1906 -1.2692
 2199SOL    HW3 8795   0.461   2.422   3.713 -0.0420  2.0070 -0.1178
 2199SOL    MW4 8796   0.451   2.416   3.799 -0.0638 -0.0508 -0.2403
 2200SOL     OW 8797   0.479   2.681   3.900 -0.0864  0.0447  0.1230
 2200SOL    HW2 8798   0.548   2.712   3.841 -0.3535 -0.0796 -0.2508
 2200SOL    HW3 8799   0.468   2.589   3.878 -0.6458  0.1599 -0.0840
 2200SOL    MW4 8800   0.487   2.673   3.890 -0.1954  0.0435  0.0464
 2201SOL     OW 8801   0.694   2.819   3.780 -0.2847  0.3555 -0.0062
 2201SOL    HW2 8802   0.775   2.769   3.792  0.3783  1.1245 -1.1330
 2201SOL    HW3 8803   0.685   2.827   3.685 -0.8389  1.6147  0.1436
 2201SOL    MW4 8804   0.704   2.814   3.769 -0.2703  0.6231 -0.1351
 2202SOL     OW 8805   0.627   3.074   3.860 -0.0400 -0.3721  0.0521
 2202SOL    HW2 8806   0.652   3.097   3.950 -0.5556 -0.5520  0.2401
 2202SOL    HW3 8807   0.649   2.981   3.852 -0.2682 -0.4288  0.0861
 2202SOL    MW4 8808   0.633   3.065   3.871 -0.1381 -0.4033  0.0814
 2203SOL     OW 8809   0.407   3.203   3.815  0.2111  0.8869  0.2778
 2203SOL    HW2 8810   0.486   3.154   3.838  0.1302  0.0010 -1.2921
 2203SOL    HW3 8811   0.338   3.164   3.869  0.5818  0.8029  0.6944
 2203SOL    MW4 8812   0.408   3.191   3.825  0.2493  0.7590  0.1256
 2204SOL     OW 8813   0.442   3.478   3.906  0.4698  0.1667  0.5235
 2204SOL    HW2 8814   0.514   3.512   3.852 -0.3533  1.4329  0.1996
 2204SOL    HW3 8815   0.431   3.387   3.877  0.5617  0.6005 -0.9155
 2204SOL    MW4 8816   0.450   3.471   3.895  0.3734  0.3910  0.2909
 2205SOL     OW 8817   0.647   3.579   3.755 -0.0416 -0.3961 -0.2062
 2205SOL    HW2 8818   0.647   3.670   3.783  2.0415 -0.8114  1.2252
 2205SOL    HW3 8819   0.662   3.582   3.660 -0.6573  0.7587 -0.2688
 2205SOL    MW4 8820   0.649   3.591   3.746  0.1520 -0.2985 -0.0256
 2206SOL     OW 8821   0.648   3.848   3.858 -0.0551 -0.0488 -0.1645
 2206SOL    HW2 8822   0.638   3.862   3.952 -2.4737  1.6472 -0.6530
 2206SOL    HW3 8823   0.720   3.906   3.833 -0.5489  0.7948  0.3476
 2206SOL    MW4 8824   0.656   3.857   3.868 -0.4394  0.2863 -0.1614
 2207SOL     OW 8825   0.424   3.973   3.771 -0.2333  0.0777 -0.1129
 2207SOL    HW2 8826   0.497   3.915   3.794 -0.9631 -0.7400  0.1702
 2207SOL    HW3 8827   0.431   3.984   3.676  0.4448  0.2656 -0.0452
 2207SOL    MW4 8828   0.435   3.967   3.762 -0.2401 -0.0054 -0.0666
 2208SOL     OW 8829   0.467   4.264   3.849 -0.5132  0.3118  0.3599
 2208SOL    HW2 8830   0.540   4.309   3.806 -1.1178 -0.2195 -1.2681
 2208SOL    HW3 8831   0.485   4.171   3.835 -1.7377  0.1903 -0.4569
 2208SOL    MW4 8832   0.479   4.257   3.841 -0.7545  0.2257  0.0374
 2209SOL     OW 8833   0.695   4.409   3.769  0.0111 -0.0913  0.1094
 2209SOL    HW2 8834   0.773   4.356   3.783  0.8997  0.8978 -0.9254
 2209SOL    HW3 8835   0.692   4.421   3.674 -0.3565  1.4073  0.2976
 2209SOL    MW4 8836   0.705   4.404   3.758  0.0798  0.2369 -0.0023
 2210SOL     OW 8837   1.120   4.631   3.920 -0.4261 -0.7453  0.1036
 2210SOL    HW2 8838   1.197   4.685   3.898 -0.3587 -0.1847  1.6785
 2210SOL    HW3 8839   1.135   4.548   3.874 -0.8972  0.8056 -3.0143
 2210SOL    MW4 8840   1.132   4.627   3.911 -0.4794 -0.4667 -0.1000
 2211SOL     OW 8841   0.930   0.099   3.790  0.2931 -0.4400  0.3276
 2211SOL    HW2 8842   1.003   0.057   3.835  1.0138  1.4825  1.0452
 2211SOL    HW3 8843   0.852   0.058   3.827  0.9594 -0.7779  1.3785
 2211SOL    MW4 8844   0.929   0.088   3.801  0.4761 -0.2310  0.5609
 2212SOL     OW 8845   0.897   0.361   3.879 -0.0045 -0.5424  0.3243
 2212SOL    HW2 8846   0.904   0.360   3.975  1.3844 -0.3748  0.2405
 2212SOL    HW3 8847   0.911   0.270   3.853 -0.0647 -0.5340  0.2628
 2212SOL    MW4 8848   0.900   0.349   3.888  0.1708 -0.5192  0.3051
 2213SOL     OW 8849   1.111   0.509   3.764 -0.3974  0.3899 -0.0952
 2213SOL    HW2 8850   1.188   0.467   3.803 -0.6908  0.0422  0.1035
 2213SOL    HW3 8851   1.036   0.460   3.798 -0.7726  1.4272  0.5991
 2213SOL    MW4 8852   1.111   0.497   3.774 -0.4856  0.4809  0.0226
 2214SOL     OW 8853   1.115   0.756   3.873  0.0314 -0.1823  0.3514
 2214SOL    HW2 8854   1.041   0.810   3.847 -1.8013 -2.0253  1.5515
 2214SOL    HW3 8855   1.104   0.675   3.824  2.1053  0.0686 -0.5787
 2214SOL    MW4 8856   1.104   0.752   3.863  0.0633 -0.3923  0.3870
 2215SOL     OW 8857   0.896   0.902   3.770 -0.2613  0.4054  0.1492
 2215SOL    HW2 8858   0.848   0.837   3.821  0.2921 -0.1084  0.0177
 2215SOL    HW3 8859   0.895   0.868   3.680  0.3550  0.3896  0.1490
 2215SOL    MW4 8860   0.889   0.889   3.765 -0.1070  0.3355  0.1318
 2216SOL     OW 8861   0.889   1.159   3.850 -0.4017  0.0055  0.1032
 2216SOL    HW2 8862   0.901   1.134   3.942 -0.8202  0.7225  0.3621
 2216SOL    HW3 8863   0.883   1.076   3.803  0.1569 -0.3663  0.6768
 2216SOL    MW4 8864   0.890   1.145   3.856 -0.3832  0.0510  0.2130
 2217SOL     OW 8865   1.137   1.228   3.738 -0.1350 -0.0191  0.1015
 2217SOL    HW2 8866   1.143   1.314   3.780 -2.5146  0.7431 -1.0196
 2217SOL    HW3 8867   1.051   1.195   3.764 -0.0519 -1.2091 -1.0744
 2217SOL    MW4 8868   1.126   1.235   3.747 -0.4380 -0.0755 -0.2015
 2218SOL     OW 8869   1.173   1.468   3.869 -0.3961 -0.0355 -0.2777
 2218SOL    HW2 8870   1.142   1.515   3.946  0.1635 -0.6470  0.3303
 2218SOL    HW3 8871   1.231   1.530   3.825  0.5184 -0.2178  0.6449
 2218SOL    MW4 8872   1.177   1.482   3.873 -0.2016 -0.1403 -0.0758
 2219SOL     OW 8873   0.933   1.619   3.748 -0.6126 -0.3931  0.1994
 2219SOL    HW2 8874   1.017   1.574   3.756 -0.4496 -0.0314  0.5651
 2219SOL    HW3 8875   0.917   1.626   3.654  0.5172  0.9260  0.1007
 2219SOL    MW4 8876   0.942   1.614   3.737 -0.4421 -0.1713  0.2347
 2220SOL     OW 8877   0.900   1.896   3.827  0.0647 -0.2101 -0.7895
 2220SOL    HW2 8878   0.898   1.824   3.764 -0.3937  0.5514 -1.6627
 2220SOL    HW3 8879   0.820   1.945   3.810  0.1828  0.2842  0.0589
 2220SOL    MW4 8880   0.889   1.893   3.816  0.0198 -0.0444 -0.7928
 2221SOL     OW 8881   1.121   2.054   3.776  0.3994  0.1760 -0.5944
 2221SOL    HW2 8882   1.041   2.001   3.777  0.4011  0.1769  1.3439
 2221SOL    HW3 8883   1.155   2.043   3.687 -1.3760 -0.3814 -1.2456
 2221SOL    MW4 8884   1.115   2.046   3.764  0.1654  0.1025 -0.4246
 2222SOL     OW 8885   1.134   2.323   3.846 -0.2712 -0.2548  0.0291
 2222SOL    HW2 8886   1.117   2.332   3.940 -0.0630  0.7955 -0.0379
 2222SOL    HW3 8887   1.120   2.230   3.829 -1.2293 -0.2848  0.9207
 2222SOL    MW4 8888   1.130   2.312   3.856 -0.3701 -0.1202  0.1379
 2223SOL     OW 8889   0.917   2.446   3.749 -0.3617 -0.5347  0.0779
 2223SOL    HW2 8890   0.927   2.535   3.783  0.2698 -0.0854 -1.2498
 2223SOL    HW3 8891   1.002   2.405   3.763 -0.0954 -0.3452 -0.9512
 2223SOL    MW4 8892   0.929   2.453   3.755 -0.2433 -0.4504 -0.2330
 2224SOL     OW 8893   0.893   2.686   3.897 -0.4513 -0.3469  0.4441
 2224SOL    HW2 8894   0.877   2.710   3.989 -0.7792  0.6824  0.1220
 2224SOL    HW3 8895   0.961   2.747   3.868 -1.2825  0.1912 -0.3785
 2224SOL    MW4 8896   0.900   2.697   3.906 -0.6043 -0.1401  0.2930
 2225SOL     OW 8897   1.094   2.816   3.763 -0.2656 -0.5517  0.4026
 2225SOL    HW2 8898   1.177   2.769   3.774 -0.6599 -1.0660  1.1863
 2225SOL    HW3 8899   1.110   2.901   3.804  0.7828  0.4118 -1.9118
 2225SOL    MW4 8900   1.107   2.821   3.770 -0.1793 -0.4924  0.2007
 2226SOL     OW 8901   1.100   3.076   3.905  0.4561  0.0928 -0.2262
 2226SOL    HW2 8902   1.176   3.122   3.868 -0.1913  0.7494 -0.7655
 2226SOL    HW3 8903   1.025   3.121   3.867 -0.2029 -0.6402  0.2030
 2226SOL    MW4 8904   1.100   3.088   3.895  0.2837  0.0827 -0.2407
 2227SOL     OW 8905   0.876   3.162   3.770  0.3675  0.2679 -0.6317
 2227SOL    HW2 8906   0.790   3.136   3.802  0.3949 -0.3633 -1.0721
 2227SOL    HW3 8907   0.863   3.178   3.677  0.7830 -0.0701 -0.7478
 2227SOL    MW4 8908   0.863   3.161   3.762  0.4260  0.1400 -0.7051
 2228SOL     OW 8909   0.896   3.421   3.802 -0.5132  0.1070 -0.1250
 2228SOL    HW2 8910   0.884   3.329   3.781 -0.1002 -0.2364  1.0757
 2228SOL    HW3 8911   0.810   3.461   3.785 -1.2477 -0.8721  1.1463
 2228SOL    MW4 8912   0.883   3.414   3.797 -0.5557 -0.0675  0.2011
 2229SOL     OW 8913   1.121   3.585   3.774 -0.3006 -0.2927  0.2701
 2229SOL    HW2 8914   1.098   3.673   3.804 -1.6295  0.1739 -2.0062
 2229SOL    HW3 8915   1.044   3.532   3.795 -0.2508 -0.5025 -0.0787
 2229SOL    MW4 8916   1.108   3.589   3.781 -0.4693 -0.2588 -0.0762
 2230SOL     OW 8917   1.131   3.865   3.855  0.3337 -0.4491 -0.7008
 2230SOL    HW2 8918   1.135   3.876   3.950 -1.1041  0.9274 -0.7839
 2230SOL    HW3 8919   1.192   3.930   3.820  0.5034 -0.6321 -0.7498
 2230SOL    MW4 8920   1.139   3.875   3.863  0.1664 -0.2916 -0.7182
 2231SOL     OW 8921   0.881   3.986   3.750  0.1624 -0.0856 -0.3769
 2231SOL    HW2 8922   0.958   3.945   3.790 -0.7473 -2.2252 -0.7549
 2231SOL    HW3 8923   0.904   3.994   3.658  0.5791  0.8445 -0.1967
 2231SOL    MW4 8924   0.894   3.982   3.743  0.0974 -0.2452 -0.4030
 2232SOL     OW 8925   0.909   4.257   3.833  0.4939  0.0732  0.4424
 2232SOL    HW2 8926   0.910   4.255   3.929 -1.5036  1.2094  0.5309
 2232SOL    HW3 8927   0.888   4.168   3.807  0.4921 -0.1209  1.0953
 2232SOL    MW4 8928   0.906   4.245   3.842  0.2301  0.1975  0.5402
 2233SOL     OW 8929   1.163   4.375   3.796  0.0178 -0.0123  0.2414
 2233SOL    HW2 8930   1.076   4.336   3.812 -0.9334  2.2070  0.6625
 2233SOL    HW3 8931   1.167   4.383   3.701 -0.7006  0.8882  0.2823
 2233SOL    MW4 8932   1.152   4.371   3.785 -0.2025  0.3993  0.3024
 2234SOL     OW 8933   1.538   4.656   3.926  0.0258 -0.2072  0.2318
 2234SOL    HW2 8934   1.544   4.656   4.021  0.6536  1.2591  0.2003
 2234SOL    HW3 8935   1.572   4.570   3.899  3.4157  0.8225  1.1113
 2234SOL    MW4 8936   1.543   4.644   3.935  0.5559  0.1221  0.3437
 2235SOL     OW 8937   1.333   0.119   3.797 -0.0761  0.0093 -0.0254
 2235SOL    HW2 8938   1.337   0.214   3.808 -1.1667 -0.0821  1.3209
 2235SOL    HW3 8939   1.410   0.087   3.844  0.0303  0.1996 -0.0680
 2235SOL    MW4 8940   1.344   0.128   3.805 -0.2059  0.0223  0.1466
 2236SOL     OW 8941   1.346   0.390   3.855 -0.1272  0.1225  0.1982
 2236SOL    HW2 8942   1.339   0.392   3.951 -0.5546  1.2076  0.1617
 2236SOL    HW3 8943   1.434   0.422   3.837  0.3008 -1.0149  0.2565
 2236SOL    MW4 8944   1.357   0.395   3.865 -0.1272  0.1156  0.2011
 2237SOL     OW 8945   1.586   0.510   3.803 -0.3519 -0.3871  0.1147
 2237SOL    HW2 8946   1.673   0.488   3.839 -0.7169 -1.2517  0.4858
 2237SOL    HW3 8947   1.569   0.599   3.835  0.7365  0.0984 -0.6211
 2237SOL    MW4 8948   1.595   0.519   3.812 -0.2564 -0.4371  0.0666
 2238SOL     OW 8949   1.575   0.771   3.892 -0.7963 -0.2461 -0.1351
 2238SOL    HW2 8950   1.508   0.817   3.841 -0.5791  1.0939  0.7424
 2238SOL    HW3 8951   1.658   0.797   3.852 -0.6109  1.0066  1.0179
 2238SOL    MW4 8952   1.577   0.780   3.880 -0.7432  0.0960  0.1328
 2239SOL     OW 8953   1.364   0.861   3.771  0.3730 -0.4057  0.6297
 2239SOL    HW2 8954   1.366   0.954   3.796 -0.6784  0.0435 -0.8796
 2239SOL    HW3 8955   1.285   0.827   3.815  0.6280 -0.5341  0.9911
 2239SOL    MW4 8956   1.354   0.869   3.780  0.2679 -0.3634  0.4782
 2240SOL     OW 8957   1.378   1.129   3.858 -0.0706  0.2618 -0.4185
 2240SOL    HW2 8958   1.448   1.180   3.819 -0.3489  0.7884 -0.2282
 2240SOL    HW3 8959   1.297   1.173   3.831 -0.2839  0.3762  0.3713
 2240SOL    MW4 8960   1.376   1.141   3.849 -0.1354  0.3464 -0.2892
 2241SOL     OW 8961   1.595   1.247   3.750  0.2825  0.3657 -0.0257
 2241SOL    HW2 8962   1.669   1.203   3.791  0.4786  0.1421 -0.6265
 2241SOL    HW3 8963   1.587   1.330   3.798  0.6108  0.1725  0.3624
 2241SOL    MW4 8964   1.604   1.252   3.762  0.3517  0.3107 -0.0538
 2242SOL     OW 8965   1.543   1.497   3.875 -0.7700  0.1061 -0.0418
 2242SOL    HW2 8966   1.537   1.499   3.971  0.0298 -0.6523  0.0377
 2242SOL    HW3 8967   1.628   1.537   3.856 -0.4724 -0.6675 -0.3668
 2242SOL    MW4 8968   1.553   1.502   3.885 -0.6252 -0.0960 -0.0742
 2243SOL     OW 8969   1.346   1.621   3.730  0.4717 -0.3058  0.1634
 2243SOL    HW2 8970   1.335   1.710   3.762  0.8548 -0.1415 -0.1543
 2243SOL    HW3 8971   1.423   1.588   3.777  2.3730  0.6777 -2.1401
 2243SOL    MW4 8972   1.355   1.628   3.741  0.7731 -0.1543 -0.1824
 2244SOL     OW 8973   1.310   1.878   3.828  0.0151 -0.3056  0.4825
 2244SOL    HW2 8974   1.322   1.851   3.919  1.5783  2.0195  1.0092
 2244SOL    HW3 8975   1.244   1.947   3.831 -1.6425 -1.7943 -0.4748
 2244SOL    MW4 8976   1.303   1.883   3.840  0.0027 -0.1953  0.4257
 2245SOL     OW 8977   1.553   2.017   3.773  0.1698 -0.3747 -0.0139
 2245SOL    HW2 8978   1.471   1.976   3.801  0.8850 -0.3536  2.2545
 2245SOL    HW3 8979   1.559   1.999   3.679 -1.7820 -1.4966  0.0596
 2245SOL    MW4 8980   1.543   2.009   3.764  0.0067 -0.5199  0.2951
 2246SOL     OW 8981   1.550   2.293   3.863 -0.7737  0.0066  0.2334
 2246SOL    HW2 8982   1.555   2.205   3.828 -1.0634  0.1300 -0.1200
 2246SOL    HW3 8983   1.628   2.337   3.828 -0.7091 -0.0645  0.2868
 2246SOL    MW4 8984   1.561   2.288   3.854 -0.8034  0.0135  0.1938
 2247SOL     OW 8985   1.353   2.432   3.732 -0.0969 -0.5873  0.2842
 2247SOL    HW2 8986   1.418   2.382   3.781  0.8354 -0.0973 -0.4399
 2247SOL    HW3 8987   1.269   2.400   3.764  0.5015 -0.8129  1.6509
 2247SOL    MW4 8988   1.351   2.421   3.743  0.1051 -0.5524  0.3690
 2248SOL     OW 8989   1.358   2.704   3.806 -0.1391  0.3027 -0.3369
 2248SOL    HW2 8990   1.340   2.709   3.900  1.8257  0.8331  0.0425
 2248SOL    HW3 8991   1.356   2.610   3.786  1.1174  0.0632  0.6042
 2248SOL    MW4 8992   1.355   2.692   3.816  0.2859  0.3411 -0.1627
 2249SOL     OW 8993   1.615   2.838   3.767  0.2759 -0.2968 -0.4895
 2249SOL    HW2 8994   1.537   2.799   3.806 -0.3818  1.7924  0.3698
 2249SOL    HW3 8995   1.610   2.814   3.675  0.0929 -2.5022  0.0561
 2249SOL    MW4 8996   1.604   2.830   3.760  0.1649 -0.3121 -0.3042
 2250SOL     OW 8997   1.589   3.100   3.889  0.5148 -0.0200 -0.3218
 2250SOL    HW2 8998   1.605   3.093   3.983 -0.1752 -1.0475 -0.2786
 2250SOL    HW3 8999   1.592   3.010   3.857 -2.5305 -0.0228 -0.7421
 2250SOL    MW4 9000   1.591   3.087   3.897  0.0220 -0.1559 -0.3715
 2251SOL     OW 9001   1.322   3.211   3.797  0.3790 -0.7042  0.3362
 2251SOL    HW2 9002   1.327   3.296   3.842  0.7143 -0.8611  0.5955
 2251SOL    HW3 9003   1.388   3.157   3.840 -0.4152 -1.3674  0.7363
 2251SOL    MW4 9004   1.332   3.215   3.808  0.3185 -0.8124  0.4232
 2252SOL     OW 9005   1.352   3.471   3.890  0.3308 -0.4349  0.1241
 2252SOL    HW2 9006   1.418   3.536   3.866 -0.4451  0.9652  1.6929
 2252SOL    HW3 9007   1.270   3.506   3.854  0.0303 -0.9180  0.3380
 2252SOL    MW4 9008   1.350   3.484   3.882  0.1888 -0.3139  0.3593
 2253SOL     OW 9009   1.580   3.627   3.788  0.5597  0.0638 -0.7629
 2253SOL    HW2 9010   1.653   3.588   3.835  0.0663 -0.2023 -0.2027
 2253SOL    HW3 9011   1.585   3.720   3.809 -0.2684 -0.2014  0.6752
 2253SOL    MW4 9012   1.590   3.634   3.797  0.3853 -0.0063 -0.4993
 2254SOL     OW 9013   1.599   3.877   3.866 -0.2596  0.0147  0.1233
 2254SOL    HW2 9014   1.609   3.866   3.961 -1.3528 -1.3238  0.0895
 2254SOL    HW3 9015   1.516   3.925   3.856  0.1735  0.7254 -0.1408
 2254SOL    MW4 9016   1.590   3.882   3.877 -0.3467 -0.0681  0.0840
 2255SOL     OW 9017   1.364   4.000   3.785 -0.1179 -0.2673 -0.5909
 2255SOL    HW2 9018   1.384   4.089   3.812 -0.7685  0.1167 -1.3559
 2255SOL    HW3 9019   1.366   4.003   3.689 -1.6477 -0.7049 -0.6590
 2255SOL    MW4 9020   1.367   4.012   3.776 -0.4056 -0.2744 -0.7008
 2256SOL     OW 9021   1.387   4.247   3.875  0.2027  0.0831  0.5203
 2256SOL    HW2 9022   1.465   4.297   3.852  1.2958 -1.4513  0.8350
 2256SOL    HW3 9023   1.315   4.298   3.839  1.3630  1.3504 -0.0730
 2256SOL    MW4 9024   1.388   4.261   3.867  0.5000  0.0479  0.4836
 2257SOL     OW 9025   1.600   4.409   3.790  0.1859  0.1890  0.1288
 2257SOL    HW2 9026   1.673   4.350   3.806 -0.4596 -0.6720 -0.0547
 2257SOL    HW3 9027   1.588   4.407   3.695 -1.2579 -1.1354  0.3157
 2257SOL    MW4 9028   1.608   4.401   3.780 -0.0898 -0.0993  0.1293
 2258SOL     OW 9029   1.993   4.651   3.878 -0.2766  0.1338 -0.2220
 2258SOL    HW2 9030   2.073   4.693   3.848  0.7269 -0.6195  1.3449
 2258SOL    HW3 9031   2.008   4.557   3.865 -0.3489 -0.1032  1.3290
 2258SOL    MW4 9032   2.005   4.644   3.873 -0.1538  0.0032  0.1894
 2259SOL     OW 9033   1.760   0.139   3.803  0.5485  0.3867  0.1458
 2259SOL    HW2 9034   1.832   0.078   3.820  0.3136  0.7004  2.4899
 2259SOL    HW3 9035   1.682   0.093   3.834  0.0059  0.8112 -0.5850
 2259SOL    MW4 9036   1.759   0.125   3.809  0.4459  0.4841  0.3586
 2260SOL     OW 9037   1.848   0.394   3.861 -0.3925 -0.2179 -0.0909
 2260SOL    HW2 9038   1.861   0.412   3.954 -0.8273 -0.4407  0.0172
 2260SOL    HW3 9039   1.805   0.308   3.860  1.8716 -1.3726 -0.6021
 2260SOL    MW4 9040   1.844   0.385   3.873 -0.1511 -0.3997 -0.1441
 2261SOL     OW 9041   2.064   0.508   3.731 -0.3089  0.6163  0.1730
 2261SOL    HW2 9042   1.975   0.481   3.757  0.4041 -0.8911  1.1307
 2261SOL    HW3 9043   2.063   0.503   3.636 -1.2210  0.4849  0.1784
 2261SOL    MW4 9044   2.052   0.504   3.722 -0.3352  0.4001  0.3001
 2262SOL     OW 9045   2.008   0.742   3.845 -0.1868 -0.4955 -0.1819
 2262SOL    HW2 9046   2.031   0.717   3.935 -0.8826  0.3716  0.2450
 2262SOL    HW3 9047   2.026   0.664   3.793 -0.8116 -1.3663  0.8805
 2262SOL    MW4 9048   2.013   0.729   3.850 -0.3611 -0.4960  0.0146
 2263SOL     OW 9049   1.789   0.865   3.752 -0.0937 -0.2098 -0.2542
 2263SOL    HW2 9050   1.870   0.817   3.768 -0.4628 -0.3838  1.1363
 2263SOL    HW3 9051   1.796   0.895   3.661  0.8398 -1.5292 -0.6242
 2263SOL    MW4 9052   1.800   0.863   3.742 -0.0192 -0.4068 -0.1196
 2264SOL     OW 9053   1.807   1.119   3.865 -0.4764 -0.4496 -0.0308
 2264SOL    HW2 9054   1.788   1.118   3.959  1.1526  0.5569  0.3320
 2264SOL    HW3 9055   1.802   1.027   3.839 -0.2248 -0.8208  1.1913
 2264SOL    MW4 9056   1.804   1.107   3.874 -0.2283 -0.3658  0.1783
 2265SOL     OW 9057   2.052   1.266   3.774  0.0296 -0.3315  0.1977
 2265SOL    HW2 9058   2.133   1.216   3.787 -0.1108 -0.6715 -0.2283
 2265SOL    HW3 9059   1.982   1.206   3.798 -0.1051 -0.0780  0.4413
 2265SOL    MW4 9060   2.054   1.252   3.779 -0.0067 -0.3430  0.1736
 2266SOL     OW 9061   2.021   1.506   3.894  0.5004 -0.1695  0.2870
 2266SOL    HW2 9062   1.937   1.546   3.873  0.2487 -0.4709  0.7032
 2266SOL    HW3 9063   2.016   1.419   3.853  0.2571 -0.5193  1.0311
 2266SOL    MW4 9064   2.009   1.500   3.886  0.4351 -0.2554  0.4401
 2267SOL     OW 9065   1.773   1.616   3.799 -0.2332 -0.3913 -0.3177
 2267SOL    HW2 9066   1.771   1.709   3.818 -1.6309 -0.0831 -1.7731
 2267SOL    HW3 9067   1.799   1.611   3.707  0.9477 -1.5005  0.0645
 2267SOL    MW4 9068   1.776   1.627   3.789 -0.2618 -0.4970 -0.4593
 2268SOL     OW 9069   1.788   1.885   3.869 -0.2625 -0.5870 -0.2022
 2268SOL    HW2 9070   1.792   1.887   3.964  0.0093 -0.9640 -0.2046
 2268SOL    HW3 9071   1.707   1.932   3.847 -1.7376 -2.7663  0.3409
 2268SOL    MW4 9072   1.778   1.891   3.878 -0.4213 -0.9243 -0.1309
 2269SOL     OW 9073   2.014   2.023   3.793 -0.2402  0.0972  0.0541
 2269SOL    HW2 9074   1.935   1.980   3.828  0.3141  0.3001  1.6076
 2269SOL    HW3 9075   2.005   2.016   3.698 -1.8785 -0.3477  0.2182
 2269SOL    MW4 9076   2.002   2.017   3.785 -0.3832  0.0652  0.2807
 2270SOL     OW 9077   2.000   2.287   3.868 -0.2769  0.1258 -0.0584
 2270SOL    HW2 9078   1.919   2.320   3.830 -0.0579  1.4561  0.6152
 2270SOL    HW3 9079   2.005   2.196   3.838 -0.7539  0.7659 -2.1359
 2270SOL    MW4 9080   1.990   2.279   3.859 -0.3109  0.3858 -0.2436
 2271SOL     OW 9081   1.768   2.401   3.753  0.2117 -0.1209 -0.3011
 2271SOL    HW2 9082   1.793   2.490   3.776  1.0438 -0.2411 -0.6971
 2271SOL    HW3 9083   1.761   2.401   3.658 -1.0618 -0.1641 -0.2163
 2271SOL    MW4 9084   1.770   2.413   3.744  0.1535 -0.1425 -0.3421
 2272SOL     OW 9085   1.815   2.684   3.842 -0.3198 -0.2635 -0.2004
 2272SOL    HW2 9086   1.832   2.683   3.936 -1.2067  0.2315 -0.0232
 2272SOL    HW3 9087   1.738   2.740   3.832 -0.1465 -0.1855 -1.2387
 2272SOL    MW4 9088   1.807   2.691   3.853 -0.4139 -0.1879 -0.3140
 2273SOL     OW 9089   2.035   2.838   3.758  0.0675 -0.2077 -0.3307
 2273SOL    HW2 9090   2.104   2.793   3.807  0.3580  0.5641 -0.0228
 2273SOL    HW3 9091   1.957   2.784   3.770  0.3133 -0.4087  0.3750
 2273SOL    MW4 9092   2.034   2.825   3.766  0.1382 -0.1324 -0.1970
 2274SOL     OW 9093   1.999   3.090   3.899  0.0315  0.1306 -0.2621
 2274SOL    HW2 9094   2.085   3.117   3.868  0.0190  0.7151  0.2042
 2274SOL    HW3 9095   1.990   2.999   3.869  0.6964  0.1535 -0.5388
 2274SOL    MW4 9096   2.009   3.082   3.891  0.1176  0.2108 -0.2371
 2275SOL     OW 9097   1.803   3.263   3.799  0.1214 -0.0525 -0.1345
 2275SOL    HW2 9098   1.878   3.218   3.838 -0.2613  1.7691  2.8749
 2275SOL    HW3 9099   1.727   3.211   3.825  0.0833 -0.3344 -0.7931
 2275SOL    MW4 9100   1.803   3.250   3.808  0.0659  0.1507  0.1757
 2276SOL     OW 9101   1.800   3.508   3.898 -0.3278  0.0142  0.2052
 2276SOL    HW2 9102   1.876   3.553   3.860 -1.0567  1.0655 -0.0245
 2276SOL    HW3 9103   1.800   3.422   3.857  1.6072 -0.5379  1.3156
 2276SOL    MW4 9104   1.810   3.503   3.888 -0.1687  0.0800  0.3214
 2277SOL     OW 9105   2.043   3.629   3.782  0.1066 -0.5658 -0.2522
 2277SOL    HW2 9106   2.115   3.571   3.804  0.3287 -0.2588 -0.1619
 2277SOL    HW3 9107   2.036   3.625   3.687 -0.2696 -1.2032 -0.1957
 2277SOL    MW4 9108   2.052   3.621   3.772  0.0863 -0.6094 -0.2328
 2278SOL     OW 9109   2.038   3.877   3.884  0.0634 -0.1553 -0.2230
 2278SOL    HW2 9110   2.117   3.918   3.851  0.6438  0.1576  1.4988
 2278SOL    HW3 9111   2.044   3.786   3.857 -0.7960  0.6650 -3.3006
 2278SOL    MW4 9112   2.049   3.870   3.876  0.0266 -0.0058 -0.4019
 2279SOL     OW 9113   1.817   3.996   3.753 -0.1353  0.5398 -0.1780
 2279SOL    HW2 9114   1.887   3.945   3.792 -0.0656 -0.1213 -1.1631
 2279SOL    HW3 9115   1.736   3.953   3.783 -0.0982  0.5499 -0.0639
 2279SOL    MW4 9116   1.815   3.984   3.762 -0.1212  0.4539 -0.2929
 2280SOL     OW 9117   1.806   4.247   3.885 -0.0420  0.2828  0.3719
 2280SOL    HW2 9118   1.883   4.297   3.858 -0.8387  1.2146 -0.2337
 2280SOL    HW3 9119   1.814   4.163   3.839  1.4435 -0.2692  1.6071
 2280SOL    MW4 9120   1.817   4.242   3.875  0.0489  0.3329  0.4549
 2281SOL     OW 9121   2.037   4.383   3.789  0.2565 -0.2131  0.3827
 2281SOL    HW2 9122   2.113   4.343   3.830  0.3797  0.3954  0.7513
 2281SOL    HW3 9123   2.050   4.368   3.695  0.5001 -0.6836  0.4909
 2281SOL    MW4 9124   2.049   4.376   3.782  0.3049 -0.1949  0.4456
 2282SOL     OW 9125   2.461   4.623   3.888 -0.0123  0.1000 -0.8560
 2282SOL    HW2 9126   2.453   4.625   3.983  0.0880 -0.6193 -0.8231
 2282SOL    HW3 9127   2.543   4.668   3.869 -0.5108  1.1023 -0.6754
 2282SOL    MW4 9128   2.471   4.629   3.898 -0.0648  0.1373 -0.8278
 2283SOL     OW 9129   2.235   0.096   3.817 -0.2871  0.4492 -0.0544
 2283SOL    HW2 9130   2.319   0.057   3.840 -0.6377 -0.6377 -0.5682
 2283SOL    HW3 9131   2.235   0.099   3.722 -1.0916 -0.1965 -0.0920
 2283SOL    MW4 9132   2.246   0.091   3.808 -0.4395  0.2206 -0.1271
 2284SOL     OW 9133   2.228   0.357   3.897  0.2544  0.1811 -0.0340
 2284SOL    HW2 9134   2.221   0.265   3.870 -0.2852 -0.3643  1.8755
 2284SOL    HW3 9135   2.181   0.405   3.830  3.2819 -0.5733 -2.8278
 2284SOL    MW4 9136   2.221   0.351   3.885  0.5827  0.0096 -0.1507
 2285SOL     OW 9137   2.480   0.468   3.791 -0.0763 -0.0520  0.0534
 2285SOL    HW2 9138   2.394   0.447   3.827 -0.3963 -0.2276 -0.8027
 2285SOL    HW3 9139   2.465   0.476   3.697  0.8226  0.0434 -0.0834
 2285SOL    MW4 9140   2.467   0.466   3.784  0.0001 -0.0626 -0.0776
 2286SOL     OW 9141   2.496   0.733   3.900  0.4013  0.6191 -0.3381
 2286SOL    HW2 9142   2.405   0.761   3.891  0.7052  1.5314 -0.6259
 2286SOL    HW3 9143   2.505   0.659   3.840  0.3126  1.6439 -1.6380
 2286SOL    MW4 9144   2.485   0.727   3.891  0.4297  0.8747 -0.5476
 2287SOL     OW 9145   2.247   0.853   3.808 -0.1453 -0.0891  0.2291
 2287SOL    HW2 9146   2.156   0.825   3.821 -0.9301  2.3788  0.5219
 2287SOL    HW3 9147   2.254   0.868   3.714 -0.1875  0.1494  0.2632
 2287SOL    MW4 9148   2.236   0.852   3.797 -0.2544  0.2680  0.2722
 2288SOL     OW 9149   2.275   1.121   3.870 -0.2072  0.0873  0.1826
 2288SOL    HW2 9150   2.265   1.133   3.964  0.2248  0.8718  0.1289
 2288SOL    HW3 9151   2.265   1.027   3.857  0.9511 -0.1816  1.1547
 2288SOL    MW4 9152   2.272   1.110   3.881  0.0026  0.1553  0.3037
 2289SOL     OW 9153   2.474   1.260   3.712  0.2449  0.1234  0.2907
 2289SOL    HW2 9154   2.473   1.331   3.776  0.5374 -0.7787  1.3070
 2289SOL    HW3 9155   2.407   1.200   3.742 -0.4830  0.2855 -0.9544
 2289SOL    MW4 9156   2.465   1.262   3.724  0.1875  0.0257  0.2605
 2290SOL     OW 9157   2.478   1.473   3.892  0.0466 -0.2474 -0.5930
 2290SOL    HW2 9158   2.560   1.503   3.851 -0.2438 -1.0551 -1.7725
 2290SOL    HW3 9159   2.411   1.529   3.853 -0.1386 -0.4951 -0.6232
 2290SOL    MW4 9160   2.480   1.485   3.882 -0.0161 -0.3866 -0.7526
 2291SOL     OW 9161   2.265   1.611   3.789 -0.0088  0.0408 -0.2801
 2291SOL    HW2 9162   2.245   1.697   3.825 -0.1546 -0.1593  0.1209
 2291SOL    HW3 9163   2.184   1.560   3.802  0.4230 -0.4669  0.4319
 2291SOL    MW4 9164   2.251   1.616   3.795  0.0289 -0.0526 -0.1333
 2292SOL     OW 9165   2.236   1.888   3.868  0.2778 -0.1768 -0.4005
 2292SOL    HW2 9166   2.227   1.897   3.963  0.6722 -0.4225 -0.3378
 2292SOL    HW3 9167   2.157   1.928   3.833  0.2985  0.2377  0.0182
 2292SOL    MW4 9168   2.224   1.894   3.876  0.3325 -0.1546 -0.3370
 2293SOL     OW 9169   2.468   2.012   3.798 -0.3773 -0.2458  0.2217
 2293SOL    HW2 9170   2.471   2.097   3.842  0.1918 -0.3091  0.3088
 2293SOL    HW3 9171   2.375   1.989   3.796 -0.5719  0.5334 -0.0965
 2293SOL    MW4 9172   2.456   2.020   3.803 -0.3279 -0.1513  0.1912
 2294SOL     OW 9173   2.474   2.316   3.898  0.3409 -0.2469  0.4493
 2294SOL    HW2 9174   2.394   2.337   3.850  1.2067  1.0277 -0.4658
 2294SOL    HW3 9175   2.458   2.350   3.986 -0.5358 -0.9487  0.5692
 2294SOL    MW4 9176   2.461   2.324   3.903  0.3394 -0.1713  0.3443
 2295SOL     OW 9177   2.243   2.428   3.797  0.1095  0.1939  0.6263
 2295SOL    HW2 9178   2.159   2.383   3.811  0.4824 -0.5004  0.6386
 2295SOL    HW3 9179   2.247   2.443   3.703  0.1738 -0.1560  0.5758
 2295SOL    MW4 9180   2.232   2.424   3.787  0.1672  0.0561  0.6213
 2296SOL     OW 9181   2.232   2.702   3.875  0.1647 -0.1517 -0.4112
 2296SOL    HW2 9182   2.259   2.706   3.967  0.4738 -0.8570 -0.4726
 2296SOL    HW3 9183   2.232   2.609   3.854 -1.1183 -0.0762 -0.7732
 2296SOL    MW4 9184   2.236   2.690   3.885  0.0362 -0.2348 -0.4671
 2297SOL     OW 9185   2.464   2.837   3.756  0.2087  0.0190  0.1810
 2297SOL    HW2 9186   2.380   2.798   3.782 -0.6610  1.5757 -0.1937
 2297SOL    HW3 9187   2.469   2.823   3.662  0.3133  0.0244  0.1854
 2297SOL    MW4 9188   2.453   2.830   3.747  0.1077  0.2251  0.1321
 2298SOL     OW 9189   2.483   3.093   3.858 -0.2810 -0.0061  0.0207
 2298SOL    HW2 9190   2.469   3.095   3.953  1.2634  0.4833  0.2640
 2298SOL    HW3 9191   2.476   3.000   3.835 -0.7597 -0.1185  0.5956
 2298SOL    MW4 9192   2.481   3.081   3.868 -0.1404  0.0437  0.1287
 2299SOL     OW 9193   2.235   3.193   3.809  0.0689  0.1919  0.5235
 2299SOL    HW2 9194   2.235   3.283   3.842  1.1697  0.5700 -0.4755
 2299SOL    HW3 9195   2.320   3.158   3.835  1.3403  0.7984 -2.6229
 2299SOL    MW4 9196   2.246   3.200   3.817  0.3819  0.3218 -0.0235
 2300SOL     OW 9197   2.239   3.468   3.878 -0.1407 -0.4416 -0.4305
 2300SOL    HW2 9198   2.223   3.468   3.973 -0.7315 -0.8296 -0.5301
 2300SOL    HW3 9199   2.334   3.466   3.871 -0.0856 -0.2308  0.1589
 2300SOL    MW4 9200   2.249   3.468   3.890 -0.2114 -0.4649 -0.3659
 2301SOL     OW 9201   2.501   3.578   3.829  0.3723 -0.8076  0.1245
 2301SOL    HW2 9202   2.581   3.539   3.865  0.2587 -0.5217  0.6997
 2301SOL    HW3 9203   2.507   3.563   3.735  1.2885 -0.4584  0.1172
 2301SOL    MW4 9204   2.512   3.571   3.822  0.4782 -0.7238  0.1994
 2302SOL     OW 9205   2.490   3.858   3.899  0.0653  0.0747 -0.1507
 2302SOL    HW2 9206   2.559   3.882   3.838 -0.8416  0.8262 -0.9130
 2302SOL    HW3 9207   2.471   3.766   3.880 -0.3615  0.3664 -1.1690
 2302SOL    MW4 9208   2.496   3.849   3.889 -0.1107  0.2123 -0.3856
 2303SOL     OW 9209   2.275   3.997   3.781 -0.3062 -0.3439  0.1790
 2303SOL    HW2 9210   2.349   3.969   3.834 -0.0214  1.1465  0.5971
 2303SOL    HW3 9211   2.305   3.989   3.691 -0.2698 -1.4458  0.2819
 2303SOL    MW4 9212   2.288   3.992   3.776 -0.2638 -0.2926  0.2477
 2304SOL     OW 9213   2.247   4.250   3.942  0.2012  0.1618 -0.2196
 2304SOL    HW2 9214   2.255   4.224   4.034 -2.2873  0.1075  0.0222
 2304SOL    HW3 9215   2.224   4.170   3.896 -0.6881  0.5857 -0.5370
 2304SOL    MW4 9216   2.245   4.236   3.948 -0.2445  0.2105 -0.2296
 2305SOL     OW 9217   2.467   4.359   3.813  0.5656  0.0954 -0.1287
 2305SOL    HW2 9218   2.395   4.316   3.859 -1.1566  0.9325 -1.9373
 2305SOL    HW3 9219   2.461   4.451   3.840  0.4631  0.3091 -0.8516
 2305SOL    MW4 9220   2.457   4.366   3.823  0.3249  0.2340 -0.4627
 2306SOL     OW 9221   2.962   4.626   3.867  0.3320 -0.2146  0.2776
 2306SOL    HW2 9222   2.949   4.656   3.957  0.3105  0.4001  0.0743
 2306SOL    HW3 9223   3.033   4.681   3.833  1.1668 -1.2747  0.3054
 2306SOL    MW4 9224   2.970   4.637   3.874  0.4393 -0.2734  0.2545
 2307SOL     OW 9225   2.708   0.049   3.797 -0.0501 -0.0750  0.2097
 2307SOL    HW2 9226   2.796   0.021   3.824 -1.0145 -2.0795  1.3281
 2307SOL    HW3 9227   2.713   0.051   3.701  1.2619 -0.0206  0.2606
 2307SOL    MW4 9228   2.721   0.046   3.788 -0.0042 -0.3323  0.3640
 2308SOL     OW 9229   2.729   0.332   3.848 -0.2903  0.0358  0.3742
 2308SOL    HW2 9230   2.721   0.239   3.825  1.6660 -0.2195  0.5645
 2308SOL    HW3 9231   2.643   0.369   3.831 -1.0335 -1.7743  0.0683
 2308SOL    MW4 9232   2.717   0.324   3.843 -0.1302 -0.2367  0.3589
 2309SOL     OW 9233   2.944   0.481   3.736 -0.2677 -0.0123 -0.0475
 2309SOL    HW2 9234   3.029   0.455   3.770 -0.5296 -1.6747 -0.6402
 2309SOL    HW3 9235   2.881   0.431   3.787 -0.8913  0.9829  0.1832
 2309SOL    MW4 9236   2.947   0.471   3.747 -0.3845 -0.1003 -0.0952
 2310SOL     OW 9237   2.918   0.756   3.858  0.2037 -0.1476 -0.0074
 2310SOL    HW2 9238   2.994   0.797   3.817  0.4000 -1.4137 -0.9398
 2310SOL    HW3 9239   2.928   0.663   3.839 -0.8916 -0.4789  1.0009
 2310SOL    MW4 9240   2.929   0.749   3.850  0.0851 -0.3584  0.0026
 2311SOL     OW 9241   2.689   0.874   3.761 -0.2840 -0.1502  0.0173
 2311SOL    HW2 9242   2.773   0.839   3.792  0.2936 -0.3072 -1.6628
 2311SOL    HW3 9243   2.623   0.821   3.803  0.5122 -1.0857  0.0992
 2311SOL    MW4 9244   2.692   0.863   3.770 -0.1028 -0.2944 -0.1936
 2312SOL     OW 9245   2.709   1.133   3.861  0.1701  0.0881 -0.1409
 2312SOL    HW2 9246   2.712   1.043   3.828  2.3560 -0.0772  0.4403
 2312SOL    HW3 9247   2.636   1.173   3.813 -0.7799 -1.9393 -0.4871
 2312SOL    MW4 9248   2.700   1.126   3.850  0.3332 -0.2012 -0.1099
 2313SOL     OW 9249   2.907   1.272   3.717 -0.3730 -0.2827  0.2334
 2313SOL    HW2 9250   2.917   1.357   3.761 -0.2721 -0.7486  1.1242
 2313SOL    HW3 9251   2.838   1.228   3.767 -0.3774 -0.7489 -0.1884
 2313SOL    MW4 9252   2.899   1.278   3.730 -0.3603 -0.4057  0.2953
 2314SOL     OW 9253   2.916   1.481   3.902  0.2607  0.8201  0.0171
 2314SOL    HW2 9254   2.936   1.475   3.996  0.3280  1.1720  0.0256
 2314SOL    HW3 9255   2.992   1.525   3.865  0.5048  0.1420 -0.2987
 2314SOL    MW4 9256   2.929   1.486   3.910  0.3018  0.7771 -0.0235
 2315SOL     OW 9257   2.697   1.591   3.785  0.3569  0.2152 -0.5148
 2315SOL    HW2 9258   2.777   1.556   3.826 -0.3064  0.7164  1.2611
 2315SOL    HW3 9259   2.714   1.585   3.691  2.0458 -0.7124 -0.1798
 2315SOL    MW4 9260   2.710   1.586   3.778  0.4922  0.1589 -0.2363
 2316SOL     OW 9261   2.701   1.868   3.858 -0.2537 -0.3680  0.0029
 2316SOL    HW2 9262   2.685   1.775   3.845  0.3101 -0.8094  2.2261
 2316SOL    HW3 9263   2.619   1.910   3.831 -0.7922 -1.5696 -0.2818
 2316SOL    MW4 9264   2.688   1.861   3.853 -0.2504 -0.5847  0.2586
 2317SOL     OW 9265   2.927   2.010   3.753 -0.6129 -0.3608 -0.1708
 2317SOL    HW2 9266   2.924   2.097   3.793 -2.0311  0.0677 -1.1792
 2317SOL    HW3 9267   2.857   1.961   3.796 -1.1395 -0.3700 -1.0342
 2317SOL    MW4 9268   2.917   2.015   3.764 -0.8695 -0.3055 -0.4177
 2318SOL     OW 9269   2.906   2.266   3.842 -0.0008 -0.1081 -0.2966
 2318SOL    HW2 9270   2.902   2.273   3.937  0.2236 -2.1564 -0.1153
 2318SOL    HW3 9271   2.986   2.313   3.817 -0.8024  1.6511  0.3699
 2318SOL    MW4 9272   2.916   2.273   3.851 -0.0769 -0.1462 -0.1848
 2319SOL     OW 9273   2.694   2.431   3.757  0.0527 -0.0540  0.3347
 2319SOL    HW2 9274   2.615   2.405   3.805  0.5089  1.7124  2.0784
 2319SOL    HW3 9275   2.758   2.364   3.779  0.1309  0.5140  1.8649
 2319SOL    MW4 9276   2.692   2.418   3.766  0.1232  0.2540  0.7667
 2320SOL     OW 9277   2.669   2.684   3.870  0.0555 -0.3459 -0.0303
 2320SOL    HW2 9278   2.678   2.598   3.828 -0.7523 -0.1111 -0.7050
 2320SOL    HW3 9279   2.610   2.732   3.812  0.4608  0.6499  0.3749
 2320SOL    MW4 9280   2.663   2.679   3.856  0.0024 -0.1835 -0.0658
 2321SOL     OW 9281   2.922   2.800   3.786 -0.0144 -0.3519  0.4804
 2321SOL    HW2 9282   2.913   2.886   3.825  0.2112 -1.1986  2.4820
 2321SOL    HW3 9283   2.849   2.749   3.821 -0.1567 -0.9619 -0.6799
 2321SOL    MW4 9284   2.911   2.804   3.796 -0.0034 -0.5441  0.5914
 2322SOL     OW 9285   2.907   3.071   3.867  0.0761 -0.0729 -0.1505
 2322SOL    HW2 9286   2.830   3.112   3.829  0.0597 -0.2248 -0.2811
 2322SOL    HW3 9287   2.978   3.133   3.852  0.1952 -0.3942 -0.9672
 2322SOL    MW4 9288   2.906   3.084   3.860  0.0896 -0.1353 -0.2755
 2323SOL     OW 9289   2.696   3.189   3.736 -0.0914  0.5771 -0.3694
 2323SOL    HW2 9290   2.700   3.279   3.770 -1.9077  0.9897 -1.1437
 2323SOL    HW3 9291   2.619   3.151   3.779 -0.3725 -0.0226 -1.3842
 2323SOL    MW4 9292   2.686   3.196   3.746 -0.3681  0.5524 -0.6055
 2324SOL     OW 9293   2.747   3.434   3.879  0.7873  0.2470  0.5055
 2324SOL    HW2 9294   2.756   3.421   3.973 -0.1711  0.8894  0.6941
 2324SOL    HW3 9295   2.819   3.494   3.856  2.0862 -1.2813  0.5120
 2324SOL    MW4 9296   2.758   3.440   3.888  0.8322  0.1301  0.5312
 2325SOL     OW 9297   2.966   3.593   3.796  0.2940  0.3223 -0.3636
 2325SOL    HW2 9298   3.052   3.559   3.820 -0.0109 -0.0936  0.1384
 2325SOL    HW3 9299   2.961   3.581   3.701  0.0481 -1.3869 -0.1434
 2325SOL    MW4 9300   2.977   3.587   3.786  0.2213  0.0419 -0.2683
 2326SOL     OW 9301   2.917   3.852   3.885  0.2446  0.2666 -0.0519
 2326SOL    HW2 9302   2.905   3.851   3.980 -1.3449 -1.1323 -0.2402
 2326SOL    HW3 9303   2.911   3.760   3.859  1.2513  0.5812 -1.4462
 2326SOL    MW4 9304   2.914   3.839   3.894  0.1677  0.1235 -0.2607
 2327SOL     OW 9305   2.684   4.004   3.780 -0.4217  0.1877  0.4688
 2327SOL    HW2 9306   2.672   4.086   3.829 -1.1648 -0.5552  1.5794
 2327SOL    HW3 9307   2.764   3.965   3.817 -1.2245 -0.5873  1.4463
 2327SOL    MW4 9308   2.693   4.009   3.792 -0.6256 -0.0126  0.7443
 2328SOL     OW 9309   2.685   4.224   3.936 -0.0420 -0.5896 -0.6899
 2328SOL    HW2 9310   2.765   4.250   3.890  0.0299  0.7203  0.1570
 2328SOL    HW3 9311   2.620   4.289   3.911 -0.4540 -0.8210 -0.2356
 2328SOL    MW4 9312   2.687   4.236   3.927 -0.0869 -0.4473 -0.5182
 2329SOL     OW 9313   2.912   4.337   3.806 -0.1867 -0.2665  0.1848
 2329SOL    HW2 9314   2.988   4.279   3.814 -1.0912 -1.4800  0.1496
 2329SOL    HW3 9315   2.941   4.420   3.843  0.6592 -1.1786  1.6209
 2329SOL    MW4 9316   2.926   4.340   3.812 -0.1945 -0.5469  0.3697
 2330SOL     OW 9317   3.383   4.640   3.853 -0.1320 -0.1037  0.5322
 2330SOL    HW2 9318   3.388   4.647   3.948 -1.8183  0.5748  0.5962
 2330SOL    HW3 9319   3.466   4.675   3.822  0.9508 -1.4940  1.7960
 2330SOL    MW4 9320   3.395   4.646   3.861 -0.2116 -0.1976  0.7074
 2331SOL     OW 9321   3.187   0.138   3.747  0.0291  0.2154  0.4584
 2331SOL    HW2 9322   3.259   0.081   3.774 -0.0592  0.1591  0.5753
 2331SOL    HW3 9323   3.180   0.124   3.653  1.2346  1.4362  0.1696
 2331SOL    MW4 9324   3.196   0.129   3.739  0.1765  0.3691  0.4357
 2332SOL     OW 9325   3.167   0.397   3.859 -0.1572 -0.0510 -0.0881
 2332SOL    HW2 9326   3.197   0.393   3.950 -0.3126  1.3863  0.0442
 2332SOL    HW3 9327   3.167   0.306   3.829  0.2581 -0.4928  1.2314
 2332SOL    MW4 9328   3.171   0.385   3.867 -0.1229  0.0803  0.1034
 2333SOL     OW 9329   3.412   0.503   3.757 -0.3915  0.0467 -0.3346
 2333SOL    HW2 9330   3.488   0.452   3.785 -0.3709  0.3588  0.1792
 2333SOL    HW3 9331   3.339   0.466   3.806 -0.4536  0.2072 -0.3053
 2333SOL    MW4 9332   3.413   0.491   3.768 -0.3970  0.1090 -0.2630
 2334SOL     OW 9333   3.399   0.754   3.839 -0.0663  0.1823  0.3762
 2334SOL    HW2 9334   3.418   0.758   3.933  1.4428  0.1335  0.0816
 2334SOL    HW3 9335   3.403   0.661   3.817 -0.9659  0.1376  0.3545
 2334SOL    MW4 9336   3.402   0.742   3.849  0.0141  0.1700  0.3344
 2335SOL     OW 9337   3.139   0.886   3.761  0.1166  0.8436 -0.2116
 2335SOL    HW2 9338   3.219   0.841   3.787 -0.6552  0.3738  1.4075
 2335SOL    HW3 9339   3.137   0.879   3.666  1.7963  0.5217 -0.2371
 2335SOL    MW4 9340   3.149   0.879   3.752  0.2364  0.7392 -0.0013
 2336SOL     OW 9341   3.117   1.133   3.850 -0.4216  0.0202  0.3589
 2336SOL    HW2 9342   3.114   1.042   3.819 -0.0779  0.4244 -0.8701
 2336SOL    HW3 9343   3.045   1.176   3.805  0.6273  0.8248 -0.5718
 2336SOL    MW4 9344   3.107   1.127   3.840 -0.2379  0.1797  0.0739
 2337SOL     OW 9345   3.382   1.245   3.761  0.0478  0.0650  0.1097
 2337SOL    HW2 9346   3.294   1.216   3.783 -0.1587 -0.4096 -1.2476
 2337SOL    HW3 9347   3.385   1.241   3.665  1.8832 -0.9421  0.1853
 2337SOL    MW4 9348   3.371   1.241   3.751  0.2627 -0.1305 -0.0594
 2338SOL     OW 9349   3.399   1.517   3.857  0.6583 -0.2636  0.3698
 2338SOL    HW2 9350   3.386   1.429   3.821 -0.4788  0.1641 -0.2741
 2338SOL    HW3 9351   3.330   1.570   3.818  0.4179  0.5906  1.9017
 2338SOL    MW4 9352   3.388   1.512   3.847  0.4765 -0.0945  0.4870
 2339SOL     OW 9353   3.141   1.582   3.744 -0.5149 -0.1142 -0.0395
 2339SOL    HW2 9354   3.140   1.675   3.765  0.2581 -0.2637  0.6972
 2339SOL    HW3 9355   3.123   1.578   3.650 -0.7800  0.7609 -0.0273
 2339SOL    MW4 9356   3.139   1.594   3.735 -0.4479 -0.0185  0.0593
 2340SOL     OW 9357   3.144   1.856   3.830 -0.2921  0.0644 -0.0449
 2340SOL    HW2 9358   3.125   1.845   3.923 -0.1828  0.4897  0.0301
 2340SOL    HW3 9359   3.076   1.917   3.799  0.1645  0.5723 -0.0599
 2340SOL    MW4 9360   3.133   1.863   3.838 -0.2174  0.1875 -0.0370
 2341SOL     OW 9361   3.391   2.007   3.801  0.0197 -0.1377  0.2813
 2341SOL    HW2 9362   3.308   1.966   3.824  0.0581  0.0401  0.7468
 2341SOL    HW3 9363   3.395   2.002   3.705  0.4451 -2.0390  0.3742
 2341SOL    MW4 9364   3.380   2.001   3.791  0.0809 -0.3651  0.3550
 2342SOL     OW 9365   3.378   2.277   3.863 -0.6092 -0.0106  0.0332
 2342SOL    HW2 9366   3.294   2.308   3.828 -0.0818  0.2098 -1.0603
 2342SOL    HW3 9367   3.384   2.187   3.831 -0.6705 -0.1940  0.5463
 2342SOL    MW4 9368   3.367   2.269   3.854 -0.5477 -0.0057 -0.0434
 2343SOL     OW 9369   3.147   2.385   3.768 -0.1221 -0.2262 -0.4091
 2343SOL    HW2 9370   3.141   2.477   3.796  0.9365 -0.2551 -0.0512
 2343SOL    HW3 9371   3.152   2.389   3.673  1.6041  0.2090 -0.3250
 2343SOL    MW4 9372   3.147   2.398   3.759  0.2453 -0.1726 -0.3508
 2344SOL     OW 9373   3.134   2.643   3.858 -0.1594 -0.2889  0.6384
 2344SOL    HW2 9374   3.116   2.636   3.952 -0.2582  0.1821  0.6596
 2344SOL    HW3 9375   3.066   2.703   3.826 -0.3144 -0.6964  0.2120
 2344SOL    MW4 9376   3.123   2.650   3.866 -0.1929 -0.2805  0.5849
 2345SOL     OW 9377   3.381   2.754   3.773  1.0520 -0.0852 -0.2644
 2345SOL    HW2 9378   3.299   2.709   3.794  0.7481  0.0512 -1.1266
 2345SOL    HW3 9379   3.377   2.768   3.679  1.8920  0.2818 -0.2507
 2345SOL    MW4 9380   3.369   2.750   3.764  1.1227 -0.0188 -0.3764
 2346SOL     OW 9381   3.364   3.016   3.890  0.1175  0.3306  0.1670
 2346SOL    HW2 9382   3.370   2.932   3.844 -0.0122 -1.3440  3.0893
 2346SOL    HW3 9383   3.439   3.066   3.857  1.9128 -2.0269  0.4466
 2346SOL    MW4 9384   3.375   3.011   3.880  0.3373 -0.2014  0.5895
 2347SOL     OW 9385   3.143   3.201   3.817  0.2008  0.1169  0.3648
 2347SOL    HW2 9386   3.215   3.159   3.864 -1.7186 -2.2667  1.3078
 2347SOL    HW3 9387   3.154   3.171   3.726  0.7559  0.2922  0.3692
 2347SOL    MW4 9388   3.154   3.191   3.811  0.0208 -0.1745  0.4898
 2348SOL     OW 9389   3.175   3.465   3.881  0.0436  0.6225  0.3043
 2348SOL    HW2 9390   3.256   3.491   3.838  0.2369 -0.1905  0.1692
 2348SOL    HW3 9391   3.160   3.375   3.852 -1.5466  1.1699 -0.6065
 2348SOL    MW4 9392   3.184   3.457   3.872 -0.1407  0.5874  0.1663
 2349SOL     OW 9393   3.424   3.584   3.771 -0.3925  0.0948  0.0929
 2349SOL    HW2 9394   3.415   3.672   3.807  1.3851  0.3222 -0.0012
 2349SOL    HW3 9395   3.450   3.598   3.680 -0.6772 -0.5277 -0.0840
 2349SOL    MW4 9396   3.426   3.598   3.763 -0.1955  0.0427  0.0571
 2350SOL     OW 9397   3.410   3.822   3.915  0.5535 -0.0424  0.1789
 2350SOL    HW2 9398   3.476   3.867   3.862  0.5566 -1.8609 -1.4054
 2350SOL    HW3 9399   3.326   3.855   3.883  0.5673 -0.8538 -0.6966
 2350SOL    MW4 9400   3.408   3.832   3.904  0.5557 -0.3894 -0.1456
 2351SOL     OW 9401   3.166   3.950   3.823  0.0497 -0.2135 -0.4129
 2351SOL    HW2 9402   3.160   4.040   3.855  0.3551  0.2353 -1.5950
 2351SOL    HW3 9403   3.083   3.910   3.849 -0.7387  0.8619 -1.2531
 2351SOL    MW4 9404   3.154   3.957   3.831 -0.0140 -0.0124 -0.6797
 2352SOL     OW 9405   3.156   4.231   3.880 -0.2415  0.0155 -0.0298
 2352SOL    HW2 9406   3.160   4.234   3.976 -1.0530  0.0389  0.0122
 2352SOL    HW3 9407   3.238   4.271   3.851  0.2349 -0.4510  0.6566
 2352SOL    MW4 9408   3.167   4.236   3.889 -0.2857 -0.0430  0.0663
 2353SOL     OW 9409   3.372   4.360   3.761  0.4192 -0.2808 -0.1218
 2353SOL    HW2 9410   3.443   4.319   3.810  0.3218 -0.0991  0.1712
 2353SOL    HW3 9411   3.366   4.449   3.797  0.2822 -0.1786 -0.3935
 2353SOL    MW4 9412   3.380   4.367   3.772  0.3883 -0.2434 -0.1190
 2354SOL     OW 9413   3.821   4.648   3.926  0.1451 -0.4724  0.7108
 2354SOL    HW2 9414   3.890   4.709   3.898  0.1361 -0.7892 -0.0199
 2354SOL    HW3 9415   3.842   4.566   3.882 -0.3191 -0.7632  1.0234
 2354SOL    MW4 9416   3.833   4.646   3.916  0.0827 -0.5526  0.6556
 2355SOL     OW 9417   3.627   0.083   3.741  0.1419  0.2541  0.1881
 2355SOL    HW2 9418   3.682   0.036   3.803  0.6960  0.6481 -0.0113
 2355SOL    HW3 9419   3.661   0.058   3.655  0.2036  0.7392  0.0737
 2355SOL    MW4 9420   3.638   0.073   3.738  0.2232  0.3701  0.1467
 2356SOL     OW 9421   3.626   0.346   3.879 -0.3567  0.5167 -0.0314
 2356SOL    HW2 9422   3.685   0.413   3.845  1.1592 -0.7197  0.1410
 2356SOL    HW3 9423   3.642   0.270   3.824 -1.5133  0.0434  0.2718
 2356SOL    MW4 9424   3.636   0.345   3.867 -0.3093  0.2911  0.0314
 2357SOL     OW 9425   3.835   0.532   3.794 -0.1406 -0.4047 -0.0918
 2357SOL    HW2 9426   3.913   0.498   3.837 -0.1653 -0.7258 -0.2981
 2357SOL    HW3 9427   3.825   0.621   3.828 -1.3827 -1.3826  2.2059
 2357SOL    MW4 9428   3.844   0.539   3.804 -0.3078 -0.5761  0.1842
 2358SOL     OW 9429   3.830   0.798   3.924  0.3678 -0.3554  0.4050
 2358SOL    HW2 9430   3.912   0.847   3.928  0.6451 -0.7876  0.1077
 2358SOL    HW3 9431   3.770   0.855   3.875 -0.2469  0.9737  2.6247
 2358SOL    MW4 9432   3.833   0.812   3.918  0.3233 -0.2370  0.6587
 2359SOL     OW 9433   3.631   0.899   3.761 -0.2299 -0.3118 -0.3378
 2359SOL    HW2 9434   3.633   0.989   3.793  0.6138 -1.0033  1.6182
 2359SOL    HW3 9435   3.553   0.861   3.801 -0.5088 -0.4876 -1.0461
 2359SOL    MW4 9436   3.621   0.906   3.771 -0.1554 -0.4262 -0.1732
 2360SOL     OW 9437   3.595   1.151   3.893 -0.4382  0.1835  0.4926
 2360SOL    HW2 9438   3.669   1.191   3.847  0.7847 -3.5551 -0.9620
 2360SOL    HW3 9439   3.518   1.173   3.841 -0.0013  1.8256  0.5334
 2360SOL    MW4 9440   3.595   1.159   3.880 -0.2192 -0.0931  0.3060
 2361SOL     OW 9441   3.821   1.249   3.791 -0.3832  0.0627 -0.2843
 2361SOL    HW2 9442   3.891   1.193   3.824 -2.0167 -1.8869 -0.0594
 2361SOL    HW3 9443   3.839   1.335   3.829  1.9557 -0.3700 -0.3570
 2361SOL    MW4 9444   3.833   1.253   3.800 -0.2901 -0.2516 -0.2642
 2362SOL     OW 9445   3.856   1.527   3.889 -0.2568 -0.2101 -0.0430
 2362SOL    HW2 9446   3.842   1.535   3.984 -1.4713 -0.4296 -0.1916
 2362SOL    HW3 9447   3.794   1.589   3.851 -0.9542 -1.3245 -0.7514
 2362SOL    MW4 9448   3.846   1.536   3.896 -0.5091 -0.3861 -0.1561
 2363SOL     OW 9449   3.635   1.653   3.786  0.0038 -0.2232  0.0033
 2363SOL    HW2 9450   3.560   1.610   3.826  0.0419  1.4509  1.9659
 2363SOL    HW3 9451   3.626   1.635   3.692 -1.0663 -2.7324  0.5452
 2363SOL    MW4 9452   3.624   1.645   3.779 -0.1324 -0.3334  0.3337
 2364SOL     OW 9453   3.625   1.919   3.911 -0.2908  0.6863  0.2625
 2364SOL    HW2 9454   3.642   1.835   3.869 -0.9313  0.5355  0.2964
 2364SOL    HW3 9455   3.539   1.946   3.878 -0.0936  1.3237  0.2553
 2364SOL    MW4 9456   3.616   1.912   3.901 -0.3493  0.7505  0.2660
 2365SOL     OW 9457   3.843   2.076   3.814  0.3386  0.3658 -0.3049
 2365SOL    HW2 9458   3.917   2.025   3.847  0.1832  0.2452 -0.1433
 2365SOL    HW3 9459   3.766   2.030   3.846  0.2008  0.8717  0.0833
 2365SOL    MW4 9460   3.843   2.063   3.822  0.2999  0.4166 -0.2324
 2366SOL     OW 9461   3.839   2.332   3.912 -0.2449  0.2982  0.4057
 2366SOL    HW2 9462   3.755   2.358   3.874  1.1378  1.3754 -2.0274
 2366SOL    HW3 9463   3.855   2.244   3.877 -0.0993  0.3066  0.4505
 2366SOL    MW4 9464   3.830   2.324   3.902 -0.0433  0.4414  0.0906
 2367SOL     OW 9465   3.599   2.425   3.828 -0.0152 -0.6839  0.0304
 2367SOL    HW2 9466   3.519   2.385   3.861 -0.0427 -1.2375 -0.6962
 2367SOL    HW3 9467   3.589   2.424   3.733  0.2623  0.4810 -0.0195
 2367SOL    MW4 9468   3.587   2.419   3.820  0.0178 -0.6033 -0.0721
 2368SOL     OW 9469   3.608   2.687   3.928  0.3569 -0.1511  0.1292
 2368SOL    HW2 9470   3.611   2.597   3.896 -1.1355 -1.0842  2.4627
 2368SOL    HW3 9471   3.529   2.724   3.888  1.3030  0.3657 -1.3250
 2368SOL    MW4 9472   3.598   2.680   3.918  0.2848 -0.2060  0.2452
 2369SOL     OW 9473   3.808   2.824   3.780 -0.1691  0.5977  0.8657
 2369SOL    HW2 9474   3.890   2.782   3.805 -1.0364 -1.8791 -0.3218
 2369SOL    HW3 9475   3.741   2.776   3.828 -1.0684  1.4543  0.4779
 2369SOL    MW4 9476   3.810   2.812   3.790 -0.4022  0.3839  0.6578
 2370SOL     OW 9477   3.798   3.076   3.894 -0.4251 -0.0867  0.5328
 2370SOL    HW2 9478   3.711   3.114   3.883 -0.5933 -0.6754 -0.2398
 2370SOL    HW3 9479   3.798   3.000   3.836  0.0809 -0.9548  1.6397
 2370SOL    MW4 9480   3.787   3.071   3.885 -0.3805 -0.2789  0.5769
 2371SOL     OW 9481   3.557   3.197   3.839 -0.5507  0.0223  0.6373
 2371SOL    HW2 9482   3.574   3.288   3.863 -0.6003  0.1274  0.2732
 2371SOL    HW3 9483   3.560   3.196   3.744  1.3532 -0.7361  0.6879
 2371SOL    MW4 9484   3.560   3.209   3.830 -0.3061 -0.0639  0.5959
 2372SOL     OW 9485   3.616   3.452   3.914  0.0895 -0.3479  0.0677
 2372SOL    HW2 9486   3.605   3.472   4.007  0.2432  0.4878 -0.0958
 2372SOL    HW3 9487   3.540   3.493   3.872 -0.7160 -1.8904 -0.0127
 2372SOL    MW4 9488   3.604   3.460   3.921  0.0035 -0.4411  0.0355
 2373SOL     OW 9489   3.840   3.576   3.809  0.2390 -0.3314 -0.0137
 2373SOL    HW2 9490   3.833   3.664   3.846 -0.3788 -0.7575  0.8964
 2373SOL    HW3 9491   3.765   3.528   3.846 -0.0384 -0.9425 -1.3225
 2373SOL    MW4 9492   3.829   3.581   3.819  0.1209 -0.4682 -0.0663
 2374SOL     OW 9493   3.831   3.874   3.893  0.0866  0.1971  0.1966
 2374SOL    HW2 9494   3.815   3.873   3.988 -0.5697 -0.2948  0.0793
 2374SOL    HW3 9495   3.910   3.927   3.883  0.8859 -0.8065  1.1261
 2374SOL    MW4 9496   3.839   3.881   3.904  0.1055 -0.0002  0.3038
 2375SOL     OW 9497   3.598   3.972   3.773 -0.6532 -0.3449 -0.1180
 2375SOL    HW2 9498   3.601   4.065   3.796 -0.0120 -0.2731 -0.4642
 2375SOL    HW3 9499   3.675   3.934   3.816 -0.4836 -0.5672 -0.6115
 2375SOL    MW4 9500   3.609   3.979   3.782 -0.5462 -0.3648 -0.2288
 2376SOL     OW 9501   3.589   4.246   3.896 -0.0028  0.3696 -0.2094
 2376SOL    HW2 9502   3.589   4.217   3.987 -0.2011  0.2735 -0.2395
 2376SOL    HW3 9503   3.661   4.309   3.891 -0.4473  0.9112  0.1844
 2376SOL    MW4 9504   3.598   4.250   3.907 -0.0876  0.4284 -0.1614
 2377SOL     OW 9505   3.819   4.392   3.819  0.0259  0.2344  0.0865
 2377SOL    HW2 9506   3.896   4.346   3.854 -1.2810 -0.5665  1.9873
 2377SOL    HW3 9507   3.810   4.358   3.730  1.7253  0.1469 -0.0720
 2377SOL    MW4 9508   3.828   4.381   3.812  0.0777  0.1172  0.3163
 2378SOL     OW 9509   3.937   0.992   4.650  0.1283 -0.2455 -0.0318
 2378SOL    HW2 9510   3.942   1.067   4.710 -1.1764 -0.1610 -0.0210
 2378SOL    HW3 9511   3.851   1.001   4.608  0.6503 -0.8195 -1.2306
 2378SOL    MW4 9512   3.926   1.003   4.653  0.0250 -0.3101 -0.1886
 2379SOL     OW 9513   4.275   4.601   3.861 -0.0664 -0.3087  0.0278
 2379SOL    HW2 9514   4.277   4.596   3.957 -0.4786 -0.5700  0.0226
 2379SOL    HW3 9515   4.352   4.654   3.838 -0.4023  0.4008  0.5432
 2379SOL    MW4 9516   4.286   4.608   3.871 -0.1651 -0.2496  0.0951
 2380SOL     OW 9517   4.032   0.094   3.795 -0.2996 -0.1761 -0.0318
 2380SOL    HW2 9518   4.104   0.042   3.830 -0.2273 -0.3626 -0.4535
 2380SOL    HW3 9519   4.045   0.092   3.700 -0.4016  0.4543 -0.0605
 2380SOL    MW4 9520   4.043   0.087   3.787 -0.3035 -0.1175 -0.0912
 2381SOL     OW 9521   4.291   0.502   3.766 -0.1003 -0.1686  0.1049
 2381SOL    HW2 9522   4.206   0.462   3.789  0.1827 -0.5041  0.5870
 2381SOL    HW3 9523   4.284   0.522   3.673 -0.6051 -0.4666  0.0776
 2381SOL    MW4 9524   4.279   0.499   3.757 -0.1296 -0.2522  0.1649
 2382SOL     OW 9525   4.316   0.739   3.920  0.1744  0.2952 -0.4339
 2382SOL    HW2 9526   4.237   0.788   3.895  0.8858  1.1559 -1.0026
 2382SOL    HW3 9527   4.304   0.653   3.881 -1.2408 -0.1154  0.8434
 2382SOL    MW4 9528   4.304   0.734   3.911  0.0816  0.3546 -0.3404
 2383SOL     OW 9529   4.087   0.882   3.834  0.6239 -0.2553  0.2030
 2383SOL    HW2 9530   4.099   0.975   3.854  0.9972 -0.4147  0.7389
 2383SOL    HW3 9531   4.060   0.881   3.742  0.2440  0.4026  0.3021
 2383SOL    MW4 9532   4.085   0.894   3.824  0.6230 -0.1895  0.2868
 2384SOL     OW 9533   4.038   1.144   3.920 -0.4896 -0.4800  0.1912
 2384SOL    HW2 9534   4.039   1.185   4.007 -0.8823 -0.0887  0.0170
 2384SOL    HW3 9535   4.111   1.186   3.873 -1.6850  0.9950 -0.4141
 2384SOL    MW4 9536   4.048   1.155   3.925 -0.6991 -0.2337  0.0884
 2385SOL     OW 9537   4.264   1.242   3.772 -0.2801 -0.3783 -0.7088
 2385SOL    HW2 9538   4.262   1.329   3.811 -1.0152 -0.8577  0.3165
 2385SOL    HW3 9539   4.247   1.258   3.679  2.1006  0.8176 -0.9735
 2385SOL    MW4 9540   4.262   1.256   3.765 -0.0630 -0.2838 -0.6084
 2386SOL     OW 9541   4.284   1.504   3.890  0.2530  0.1145 -0.4909
 2386SOL    HW2 9542   4.212   1.561   3.862  0.3669  0.8404  0.6487
 2386SOL    HW3 9543   4.363   1.548   3.859  0.2656 -0.1619 -0.8552
 2386SOL    MW4 9544   4.285   1.517   3.882  0.2697  0.1738 -0.3886
 2387SOL     OW 9545   4.082   1.654   3.794  0.0126  0.2747 -0.3041
 2387SOL    HW2 9546   4.076   1.738   3.840 -0.7913 -0.0276  0.1426
 2387SOL    HW3 9547   4.006   1.605   3.822  1.1453 -1.1088  0.4173
 2387SOL    MW4 9548   4.071   1.659   3.804  0.0560  0.0523 -0.1500
 2388SOL     OW 9549   4.055   1.928   3.897 -0.3048 -0.2620 -0.3661
 2388SOL    HW2 9550   4.058   1.935   3.993 -0.9630 -1.7256 -0.2350
 2388SOL    HW3 9551   4.139   1.965   3.868  0.6286 -1.3413  0.8816
 2388SOL    MW4 9552   4.067   1.934   3.906 -0.2685 -0.5975 -0.1842
 2389SOL     OW 9553   4.319   2.029   3.827  0.2379  0.1129  0.0856
 2389SOL    HW2 9554   4.311   2.121   3.854 -0.8619  0.2011 -0.5229
 2389SOL    HW3 9555   4.335   2.033   3.733 -1.2498 -0.3574 -0.1974
 2389SOL    MW4 9556   4.320   2.042   3.818 -0.1035  0.0625 -0.0320
 2390SOL     OW 9557   4.277   2.300   3.882  0.0012  0.4553  0.3519
 2390SOL    HW2 9558   4.282   2.324   3.975 -1.3608  1.7718  0.1064
 2390SOL    HW3 9559   4.191   2.330   3.854 -0.2429 -1.3566 -0.9575
 2390SOL    MW4 9560   4.266   2.307   3.891 -0.2107  0.3899  0.1468
 2391SOL     OW 9561   4.058   2.442   3.796 -0.2896  0.3609 -0.1070
 2391SOL    HW2 9562   4.052   2.534   3.823 -0.5135  0.2871  0.0979
 2391SOL    HW3 9563   3.980   2.401   3.833  0.3971 -0.1558  0.7837
 2391SOL    MW4 9564   4.047   2.449   3.804 -0.2285  0.2830  0.0376
 2392SOL     OW 9565   4.049   2.699   3.868  0.3606  0.1008  0.6979
 2392SOL    HW2 9566   4.048   2.693   3.964 -1.2099 -0.1977  0.6718
 2392SOL    HW3 9567   4.137   2.731   3.847  0.6947  0.2322  2.2420
 2392SOL    MW4 9568   4.061   2.702   3.878  0.1975  0.0788  0.8982
 2393SOL     OW 9569   4.291   2.815   3.777  0.1646 -0.1139 -0.1738
 2393SOL    HW2 9570   4.272   2.895   3.826 -1.4806 -1.4880  1.5660
 2393SOL    HW3 9571   4.352   2.767   3.833  0.1552 -0.6261 -0.6025
 2393SOL    MW4 9572   4.296   2.819   3.791 -0.0537 -0.3628 -0.0008
 2394SOL     OW 9573   4.240   3.029   3.936  0.3059 -0.2111  0.5814
 2394SOL    HW2 9574   4.167   3.078   3.899 -0.0422 -1.2786 -0.1536
 2394SOL    HW3 9575   4.317   3.082   3.917 -0.2491  0.8201  1.1819
 2394SOL    MW4 9576   4.240   3.042   3.929  0.1867 -0.2159  0.5637
 2395SOL     OW 9577   4.051   3.173   3.795  0.0514  0.0573  0.3872
 2395SOL    HW2 9578   3.965   3.135   3.815 -0.3525  1.2882  1.0275
 2395SOL    HW3 9579   4.060   3.162   3.700 -1.2045  0.7147  0.1745
 2395SOL    MW4 9580   4.041   3.167   3.785 -0.1676  0.3064  0.4436
 2396SOL     OW 9581   4.042   3.425   3.915 -0.3227 -0.0642  0.0147
 2396SOL    HW2 9582   4.031   3.338   3.878 -0.7019 -0.3848  0.8569
 2396SOL    HW3 9583   3.969   3.476   3.878 -0.0786 -0.0894 -0.5051
 2396SOL    MW4 9584   4.031   3.421   3.905 -0.3405 -0.1098  0.0572
 2397SOL     OW 9585   4.252   3.586   3.834 -0.1419 -0.0742 -0.3134
 2397SOL    HW2 9586   4.184   3.522   3.854  0.0848 -0.4676 -0.7842
 2397SOL    HW3 9587   4.334   3.542   3.856  0.0669 -0.2494 -1.4040
 2397SOL    MW4 9588   4.254   3.572   3.839 -0.0844 -0.1492 -0.5194
 2398SOL     OW 9589   4.255   3.863   3.901  0.1173 -0.0217  0.2066
 2398SOL    HW2 9590   4.176   3.911   3.879  1.2363  1.5278 -0.5500
 2398SOL    HW3 9591   4.238   3.774   3.871 -0.7731  0.6381 -1.3183
 2398SOL    MW4 9592   4.243   3.858   3.894  0.1474  0.2698 -0.0944
 2399SOL     OW 9593   4.056   4.012   3.818  0.7995  0.0318 -0.1385
 2399SOL    HW2 9594   4.055   4.106   3.838  0.8192  0.0250 -0.1022
 2399SOL    HW3 9595   4.051   4.007   3.723 -0.0453  0.0431 -0.0942
 2399SOL    MW4 9596   4.055   4.024   3.808  0.6906  0.0324 -0.1278
 2400SOL     OW 9597   4.073   4.270   3.880  0.0774 -0.4917  0.5855
 2400SOL    HW2 9598   4.095   4.257   3.972  0.3441  0.3731  0.6477
 2400SOL    HW3 9599   4.157   4.291   3.838 -0.3623  1.1829  0.5264
 2400SOL    MW4 9600   4.087   4.271   3.886  0.0546 -0.1567  0.5859
 2401SOL     OW 9601   4.284   4.357   3.752 -0.3544  0.0141  0.3772
 2401SOL    HW2 9602   4.290   4.451   3.771 -0.7988 -0.0654  0.9338
 2401SOL    HW3 9603   4.368   4.322   3.781 -0.1964  0.2392  0.1922
 2401SOL    MW4 9604   4.296   4.365   3.759 -0.3922  0.0333  0.4262
 2402SOL     OW 9605   1.515   2.270   4.131 -0.4132 -0.1958 -0.0079
 2402SOL    HW2 9606   1.526   2.289   4.038 -2.5463  1.1697 -0.0410
 2402SOL    HW3 9607   1.585   2.318   4.174 -0.3957  0.5043 -0.8047
 2402SOL    MW4 9608   1.525   2.279   4.125 -0.6923  0.0767 -0.1174
 2403SOL     OW 9609   0.237   2.800   4.324 -0.0194  0.0074  0.0718
 2403SOL    HW2 9610   0.259   2.879   4.275  1.5792  0.3956  1.3640
 2403SOL    HW3 9611   0.306   2.738   4.301 -1.7986 -1.4016 -1.7062
 2403SOL    MW4 9612   0.249   2.802   4.314 -0.0433 -0.1273  0.0077
 2404SOL     OW 9613   3.808   3.585   4.295 -0.4997 -0.4201  0.1739
 2404SOL    HW2 9614   3.882   3.527   4.276  0.5353  1.4016 -1.4730
 2404SOL    HW3 9615   3.739   3.555   4.235 -0.7802 -1.4652  1.0011
 2404SOL    MW4 9616   3.809   3.573   4.284 -0.4002 -0.3176  0.0658
 2405SOL     OW 9617   2.464   3.717   4.713  0.0613  0.1907 -0.1452
 2405SOL    HW2 9618   2.557   3.733   4.729  0.0120 -1.4150  1.9816
 2405SOL    HW3 9619   2.430   3.802   4.683  2.5291  0.3491 -2.7647
 2405SOL    MW4 9620   2.471   3.731   4.711  0.3804 -0.0002 -0.2102
 2406SOL     OW 9621   2.308   3.299   4.566 -0.0767 -0.1297 -0.1466
 2406SOL    HW2 9622   2.321   3.256   4.481  1.3352  0.0500 -0.0362
 2406SOL    HW3 9623   2.344   3.237   4.629  1.8408  1.1234  0.0310
 2406SOL    MW4 9624   2.315   3.285   4.563  0.3626  0.0593 -0.1086
 2407SOL     OW 9625   1.317   0.582   4.640 -0.0761  0.0556  0.0578
 2407SOL    HW2 9626   1.282   0.668   4.615 -0.4371 -0.5271 -1.5334
 2407SOL    HW3 9627   1.405   0.580   4.604 -0.0215 -0.1896  0.2032
 2407SOL    MW4 9628   1.324   0.593   4.632 -0.1165 -0.0537 -0.1330
 2408SOL     OW 9629   2.271   1.159   4.498  0.3734  0.1299 -0.5891
 2408SOL    HW2 9630   2.313   1.190   4.417 -0.6041  0.4787 -0.9650
 2408SOL    HW3 9631   2.324   1.197   4.568  1.5311 -0.5843 -1.0595
 2408SOL    MW4 9632   2.284   1.168   4.496  0.3971  0.0817 -0.7008
 2409SOL     OW 9633   4.293   0.727   4.191 -0.5699 -0.3493  0.5258
 2409SOL    HW2 9634   4.306   0.633   4.202  1.9513  0.1122  1.8173
 2409SOL    HW3 9635   4.300   0.742   4.097 -0.9953 -1.4460  0.3103
 2409SOL    MW4 9636   4.295   0.716   4.180 -0.2934 -0.4331  0.6678
 2410SOL     OW 9637   2.697   3.405   4.653  0.1716  0.0154 -0.0422
 2410SOL    HW2 9638   2.782   3.443   4.630 -0.9623  0.9184 -2.9635
 2410SOL    HW3 9639   2.633   3.463   4.612 -1.8406 -1.3422  1.0972
 2410SOL    MW4 9640   2.700   3.418   4.645 -0.2435 -0.0446 -0.2773
 2411SOL     OW 9641   4.282   1.492   4.168 -0.0674 -0.0755 -0.5447
 2411SOL    HW2 9642   4.290   1.399   4.188  0.1351 -0.2093 -1.2283
 2411SOL    HW3 9643   4.282   1.496   4.072 -0.0215  0.6321 -0.5186
 2411SOL    MW4 9644   4.283   1.480   4.158 -0.0346  0.0002 -0.6315
 2412SOL     OW 9645   0.546   3.226   4.517  0.1983 -0.2083 -0.2222
 2412SOL    HW2 9646   0.590   3.141   4.517 -1.1448 -0.9438  1.8436
 2412SOL    HW3 9647   0.505   3.232   4.431  0.0242 -1.8133 -0.2680
 2412SOL    MW4 9648   0.546   3.216   4.506 -0.0019 -0.5171  0.0443
 2413SOL     OW 9649   0.746   3.579   4.513  0.3858  0.2051 -0.2613
 2413SOL    HW2 9650   0.824   3.623   4.545  2.0698 -2.1050 -1.0800
 2413SOL    HW3 9651   0.744   3.598   4.419  0.5618 -0.6216 -0.4348
 2413SOL    MW4 9652   0.756   3.588   4.505  0.6312 -0.2088 -0.3922
 2414SOL     OW 9653   0.255   2.242   4.171 -0.0532  0.3607 -0.8551
 2414SOL    HW2 9654   0.331   2.292   4.201  0.7503 -1.0173 -0.5959
 2414SOL    HW3 9655   0.254   2.164   4.226 -0.7353 -0.3957 -1.9252
 2414SOL    MW4 9656   0.265   2.239   4.182 -0.0372  0.0791 -0.9621
 2415SOL     OW 9657   4.469   4.074   4.519 -0.2071 -0.2086 -0.0857
 2415SOL    HW2 9658   4.377   4.050   4.528  0.0024 -0.5160  1.2729
 2415SOL    HW3 9659   4.473   4.167   4.542 -0.5277  0.4120 -2.3893
 2415SOL    MW4 9660   4.458   4.083   4.523 -0.2218 -0.1673 -0.2104
 2416SOL     OW 9661   1.912   0.949   4.472  0.0231 -0.0378 -0.1742
 2416SOL    HW2 9662   1.862   0.919   4.548  0.6217 -0.0802  0.2016
 2416SOL    HW3 9663   1.939   1.038   4.495  1.2267 -0.4907  0.1565
 2416SOL    MW4 9664   1.909   0.957   4.485  0.2608 -0.1032 -0.0810
 2417SOL     OW 9665   2.021   2.315   4.663  0.0229 -0.8829 -0.0766
 2417SOL    HW2 9666   2.110   2.350   4.659 -0.4514  0.4673  0.7388
 2417SOL    HW3 9667   2.002   2.310   4.757 -0.9382 -0.7278 -0.2616
 2417SOL    MW4 9668   2.031   2.319   4.675 -0.1665 -0.6843  0.0065
 2418SOL     OW 9669   0.022   4.274   4.135  0.0048  0.6937 -0.2977
 2418SOL    HW2 9670   0.032   4.272   4.040  1.7109 -0.0627 -0.1031
 2418SOL    HW3 9671   0.028   4.183   4.162 -2.4603  0.6840  0.3701
 2418SOL    MW4 9672   0.024   4.262   4.126 -0.0954  0.5926 -0.1839
 2419SOL     OW 9673   1.136   2.729   4.527  0.1717 -0.5435 -0.4428
 2419SOL    HW2 9674   1.215   2.676   4.541 -0.7804 -1.3845  2.0639
 2419SOL    HW3 9675   1.166   2.819   4.538  0.9124 -0.8147 -0.1635
 2419SOL    MW4 9676   1.151   2.734   4.530  0.1438 -0.6902 -0.0752
 2420SOL     OW 9677   4.312   2.290   4.156  0.1300  0.4109  0.5423
 2420SOL    HW2 9678   4.313   2.204   4.196  1.9173  1.0388  1.9005
 2420SOL    HW3 9679   4.229   2.329   4.184  0.3443 -0.0135  1.7888
 2420SOL    MW4 9680   4.301   2.284   4.165  0.3941  0.4378  0.8860
 2421SOL     OW 9681   0.454   4.228   4.141  0.3359 -0.1130  0.1197
 2421SOL    HW2 9682   0.458   4.245   4.047  0.1373 -1.5112 -0.1524
 2421SOL    HW3 9683   0.533   4.269   4.176  0.9850 -0.5434 -0.8117
 2421SOL    MW4 9684   0.465   4.236   4.133  0.3954 -0.3542 -0.0391
 2422SOL     OW 9685   3.256   3.013   4.726  0.4025  0.0425  0.3581
 2422SOL    HW2 9686   3.295   3.099   4.737  0.6354 -0.0419  0.2007
 2422SOL    HW3 9687   3.162   3.029   4.727  0.4344  0.6543 -2.3381
 2422SOL    MW4 9688   3.249   3.026   4.727  0.4375  0.1121 -0.0184
 2423SOL     OW 9689   3.098   2.650   4.140  0.5878  0.3358 -0.2378
 2423SOL    HW2 9690   3.012   2.679   4.169  0.4748 -1.5675  1.4266
 2423SOL    HW3 9691   3.158   2.719   4.170 -0.0899  0.5727  0.5924
 2423SOL    MW4 9692   3.095   2.663   4.148  0.4835  0.1159  0.0914
 2424SOL     OW 9693   3.434   3.772   4.697  0.5743  0.0074  0.0160
 2424SOL    HW2 9694   3.470   3.750   4.783  0.0404  1.6175  0.6699
 2424SOL    HW3 9695   3.503   3.825   4.655  0.2538  0.4438  0.0320
 2424SOL    MW4 9696   3.448   3.776   4.703  0.4616  0.2774  0.1044
 2425SOL     OW 9697   4.170   4.049   4.533  0.3339 -0.0772 -0.1767
 2425SOL    HW2 9698   4.156   4.143   4.524 -0.8734 -0.2084  0.2483
 2425SOL    HW3 9699   4.108   4.021   4.601  0.1966 -1.2896 -0.7757
 2425SOL    MW4 9700   4.160   4.057   4.541  0.1565 -0.2545 -0.1996
 2426SOL     OW 9701   4.284   2.026   4.260  0.3772 -0.4274 -0.1816
 2426SOL    HW2 9702   4.301   2.021   4.354 -0.5077 -0.7128 -0.0341
 2426SOL    HW3 9703   4.194   1.996   4.250  0.8664 -1.5784 -1.2678
 2426SOL    MW4 9704   4.275   2.022   4.271  0.3250 -0.6169 -0.3054
 2427SOL     OW 9705   4.037   1.942   4.183 -0.6571 -0.3734  0.2768
 2427SOL    HW2 9706   3.970   1.983   4.238  0.0890  0.1440  0.7912
 2427SOL    HW3 9707   4.051   1.856   4.223 -0.3840 -0.1424  0.6797
 2427SOL    MW4 9708   4.030   1.936   4.195 -0.5226 -0.2747  0.3979
 2428SOL     OW 9709   3.744   3.512   4.545 -0.3067 -0.0519 -0.1137
 2428SOL    HW2 9710   3.751   3.546   4.455  0.3843  1.5438  0.5288
 2428SOL    HW3 9711   3.792   3.429   4.542  2.7988  1.6703 -0.3939
 2428SOL    MW4 9712   3.752   3.506   4.532  0.1942  0.3859 -0.0659
 2429SOL     OW 9713   1.524   2.379   4.563 -0.0657 -0.3465  0.2604
 2429SOL    HW2 9714   1.481   2.459   4.533  0.8815 -0.0272 -0.2626
 2429SOL    HW3 9715   1.618   2.400   4.560  0.1179 -0.7960  2.0213
 2429SOL    MW4 9716   1.531   2.392   4.559  0.0835 -0.3637  0.4237
 2430SOL     OW 9717   3.447   0.503   4.247 -0.0486 -0.2418  0.6348
 2430SOL    HW2 9718   3.514   0.448   4.207 -0.6296 -0.0929 -0.5764
 2430SOL    HW3 9719   3.457   0.490   4.341  1.3749 -0.5726  0.4386
 2430SOL    MW4 9720   3.457   0.494   4.254  0.0625 -0.2658  0.4491
 2431SOL     OW 9721   3.646   0.080   4.530  0.3564 -0.1322 -0.5412
 2431SOL    HW2 9722   3.569   0.101   4.582  1.5563 -0.1419  1.2878
 2431SOL    HW3 9723   3.675  -0.005   4.564  0.8618 -0.3870 -1.5889
 2431SOL    MW4 9724   3.640   0.071   4.541  0.5814 -0.1671 -0.4381
 2432SOL     OW 9725   4.423   1.267   4.564 -0.4616 -0.3142  0.1674
 2432SOL    HW2 9726   4.508   1.310   4.558  0.1474 -1.2535  1.7005
 2432SOL    HW3 9727   4.367   1.329   4.611  0.1235 -0.7388  1.4589
 2432SOL    MW4 9728   4.426   1.281   4.569 -0.3041 -0.4941  0.5400
 2433SOL     OW 9729   3.812   1.306   4.313  0.0968  0.1874  0.1854
 2433SOL    HW2 9730   3.783   1.328   4.402 -0.8017  0.8056 -0.2517
 2433SOL    HW3 9731   3.749   1.242   4.282 -0.4872  1.0942 -0.5495
 2433SOL    MW4 9732   3.800   1.301   4.321 -0.0988  0.3886  0.0308
 2434SOL     OW 9733   0.807   1.573   4.481 -0.1435 -0.1991 -0.2105
 2434SOL    HW2 9734   0.733   1.623   4.514 -0.0797  0.6710 -1.3794
 2434SOL    HW3 9735   0.798   1.575   4.386 -0.2150 -2.5420 -0.2852
 2434SOL    MW4 9736   0.796   1.579   4.473 -0.1446 -0.3934 -0.3746
 2435SOL     OW 9737   2.521   0.115   4.646 -0.0683 -0.0147 -0.1474
 2435SOL    HW2 9738   2.489   0.108   4.736  0.7956 -0.9153  0.0992
 2435SOL    HW3 9739   2.556   0.204   4.640  0.1891 -0.0694  0.5072
 2435SOL    MW4 9740   2.521   0.126   4.657  0.0796 -0.1408 -0.0285
 2436SOL     OW 9741   0.266   2.019   4.341  0.0331  0.3178  0.0507
 2436SOL    HW2 9742   0.350   1.980   4.313  0.5319  0.3594  1.4562
 2436SOL    HW3 9743   0.200   1.965   4.298  0.7488 -0.9778  0.5182
 2436SOL    MW4 9744   0.269   2.006   4.332  0.1933  0.1524  0.2978
 2437SOL     OW 9745   2.969   0.666   4.493  0.1412 -0.3497 -0.0849
 2437SOL    HW2 9746   2.962   0.620   4.409 -3.2655 -1.1890  0.5765
 2437SOL    HW3 9747   3.049   0.717   4.486  0.5772 -1.3811 -3.3740
 2437SOL    MW4 9748   2.979   0.666   4.481 -0.2507 -0.5965 -0.4316
 2438SOL     OW 9749   1.349   1.612   4.270 -0.3476 -0.2814 -0.0609
 2438SOL    HW2 9750   1.285   1.543   4.254  0.9927 -1.5842  0.0064
 2438SOL    HW3 9751   1.430   1.579   4.231 -0.0297  1.9288 -1.3595
 2438SOL    MW4 9752   1.352   1.598   4.263 -0.1288 -0.1617 -0.2233
 2439SOL     OW 9753   2.738   1.629   4.300 -0.3468 -0.2812  0.4963
 2439SOL    HW2 9754   2.792   1.708   4.296  0.0821 -0.5474  1.0528
 2439SOL    HW3 9755   2.742   1.601   4.391 -0.6116 -0.8747  0.3305
 2439SOL    MW4 9756   2.745   1.636   4.311 -0.3252 -0.3946  0.5479
 2440SOL     OW 9757   0.460   2.419   4.240 -0.2367 -0.2028  0.3993
 2440SOL    HW2 9758   0.534   2.368   4.207 -0.8098 -1.0121  0.3312
 2440SOL    HW3 9759   0.472   2.506   4.203  1.2382 -0.0321  1.2196
 2440SOL    MW4 9760   0.471   2.423   4.231 -0.1177 -0.2871  0.4986
 2441SOL     OW 9761   1.589   3.854   4.140  0.0102  0.2744  0.4389
 2441SOL    HW2 9762   1.660   3.892   4.193  0.4939 -0.3208  0.2234
 2441SOL    HW3 9763   1.583   3.763   4.170  0.3494 -0.0918 -0.5867
 2441SOL    MW4 9764   1.598   3.847   4.151  0.1188  0.1475  0.2751
 2442SOL     OW 9765   1.880   3.913   4.766  0.2002 -0.0227  0.2408
 2442SOL    HW2 9766   1.865   3.951   4.853  0.3081  1.9700 -0.5900
 2442SOL    HW3 9767   1.974   3.896   4.763  0.3516  0.8137  0.1607
 2442SOL    MW4 9768   1.891   3.916   4.777  0.2344  0.3506  0.1206
 2443SOL     OW 9769   3.980   3.096   4.729 -0.0230  0.3095 -0.0859
 2443SOL    HW2 9770   4.076   3.091   4.721 -0.0700 -0.6248 -0.1035
 2443SOL    HW3 9771   3.964   3.094   4.823 -0.0397  0.2101 -0.0907
 2443SOL    MW4 9772   3.991   3.095   4.740 -0.0314  0.1731 -0.0889
 2444SOL     OW 9773   3.019   0.525   4.739  0.4139  0.4288  0.2926
 2444SOL    HW2 9774   2.983   0.562   4.659  1.3579  0.3548 -0.1675
 2444SOL    HW3 9775   3.034   0.600   4.796  0.6588  0.5759  0.0314
 2444SOL    MW4 9776   3.016   0.540   4.736  0.5707  0.4384  0.1974
 2445SOL     OW 9777   3.894   0.194   4.637 -0.1371 -0.2086 -0.1990
 2445SOL    HW2 9778   3.872   0.287   4.641  0.0401 -0.0623 -2.0251
 2445SOL    HW3 9779   3.813   0.152   4.607 -0.8070 -0.9096  2.4529
 2445SOL    MW4 9780   3.880   0.201   4.633 -0.2021 -0.2818 -0.0900
 2446SOL     OW 9781   3.680   1.046   4.550 -0.1773  0.3141 -0.0665
 2446SOL    HW2 9782   3.600   1.028   4.599  0.1219 -0.8760  0.0096
 2446SOL    HW3 9783   3.666   1.005   4.465  0.9266 -1.2258  0.4582
 2446SOL    MW4 9784   3.668   1.038   4.545  0.0078 -0.0461  0.0128
 2447SOL     OW 9785   4.253   3.011   4.236  0.2031 -0.5507  0.6216
 2447SOL    HW2 9786   4.234   3.009   4.143  0.4802  0.0599  0.5499
 2447SOL    HW3 9787   4.189   3.072   4.273  0.1191 -0.7590  0.8268
 2447SOL    MW4 9788   4.242   3.019   4.229  0.2285 -0.4976  0.6392
 2448SOL     OW 9789   1.011   3.154   4.629  0.2674  0.2112  0.0019
 2448SOL    HW2 9790   0.974   3.139   4.716 -0.9696 -2.3082 -0.9135
 2448SOL    HW3 9791   0.954   3.221   4.591 -2.9089 -2.9044 -1.0081
 2448SOL    MW4 9792   0.998   3.161   4.636 -0.3149 -0.5323 -0.2522
 2449SOL     OW 9793   2.976   1.227   4.599  0.6237 -0.6129  0.1007
 2449SOL    HW2 9794   2.961   1.236   4.505 -1.8736 -1.0287  0.4245
 2449SOL    HW3 9795   2.996   1.316   4.628  0.6185 -0.3446 -0.6887
 2449SOL    MW4 9796   2.977   1.240   4.590  0.2935 -0.6324  0.0393
 2450SOL     OW 9797   1.381   4.254   4.161 -0.0308  0.2142  0.2607
 2450SOL    HW2 9798   1.377   4.263   4.066 -0.6494  0.2381  0.2876
 2450SOL    HW3 9799   1.299   4.292   4.192 -0.2683 -0.6826  0.7346
 2450SOL    MW4 9800   1.370   4.260   4.153 -0.1437  0.0990  0.3268
 2451SOL     OW 9801   2.408   4.444   4.522  0.1086  0.3724 -0.0634
 2451SOL    HW2 9802   2.346   4.374   4.541  0.2061  0.1054 -0.7084
 2451SOL    HW3 9803   2.487   4.420   4.570 -0.3281  0.7747  0.8560
 2451SOL    MW4 9804   2.410   4.432   4.531  0.0638  0.3903 -0.0272
 2452SOL     OW 9805   1.145   4.627   4.211 -0.1486 -0.0346  0.3244
 2452SOL    HW2 9806   1.226   4.676   4.228 -0.6488  1.3182 -1.0146
 2452SOL    HW3 9807   1.130   4.638   4.117  0.0350 -3.3049 -0.1439
 2452SOL    MW4 9808   1.154   4.635   4.201 -0.1904 -0.2876  0.0860
 2453SOL     OW 9809   0.915   0.372   4.177 -0.0975  0.7369  0.2159
 2453SOL    HW2 9810   0.843   0.426   4.210 -0.0317  1.6590 -1.1076
 2453SOL    HW3 9811   0.897   0.284   4.210 -2.2523  0.8073 -0.7210
 2453SOL    MW4 9812   0.903   0.367   4.186 -0.3731  0.8678 -0.0824
 2454SOL     OW 9813   0.769   2.622   4.774 -0.4389 -0.0899  0.0955
 2454SOL    HW2 9814   0.848   2.568   4.771 -0.5945 -0.3149 -0.0115
 2454SOL    HW3 9815   0.697   2.559   4.770 -0.6171  0.1867 -1.5739
 2454SOL    MW4 9816   0.770   2.606   4.773 -0.4829 -0.0831 -0.1389
 2455SOL     OW 9817   4.476   0.311   4.763  0.4690  0.0100  0.2607
 2455SOL    HW2 9818   4.568   0.294   4.745  0.4365 -0.4655  0.5421
 2455SOL    HW3 9819   4.435   0.225   4.762 -0.3301  0.3914 -1.7756
 2455SOL    MW4 9820   4.483   0.297   4.761  0.3593 -0.0024  0.0292
 2456SOL     OW 9821   0.694   0.768   4.156 -0.4664 -0.4831 -0.4285
 2456SOL    HW2 9822   0.704   0.680   4.192  0.8964 -0.7191 -1.3465
 2456SOL    HW3 9823   0.766   0.817   4.195 -0.1033 -0.2595 -1.3765
 2456SOL    MW4 9824   0.705   0.763   4.166 -0.2387 -0.4847 -0.6747
 2457SOL     OW 9825   1.142   4.330   4.255  0.4383 -0.0204  0.0514
 2457SOL    HW2 9826   1.061   4.314   4.208 -0.3395  1.3367  0.8852
 2457SOL    HW3 9827   1.156   4.425   4.248  1.3209 -0.0753  0.8946
 2457SOL    MW4 9828   1.134   4.341   4.248  0.4521  0.1514  0.2727
 2458SOL     OW 9829   2.328   3.504   4.853  0.5223  0.7769  0.5167
 2458SOL    HW2 9830   2.361   3.580   4.804  0.8499 -0.1792 -0.7838
 2458SOL    HW3 9831   2.405   3.448   4.864  0.2598  0.5884  1.3755
 2458SOL    MW4 9832   2.342   3.507   4.848  0.5309  0.6259  0.4584
 2459SOL     OW 9833   1.774   0.547   4.678  0.1702 -0.2853 -0.0405
 2459SOL    HW2 9834   1.770   0.642   4.690  0.5568 -0.4302  1.2752
 2459SOL    HW3 9835   1.865   0.530   4.652  0.1272 -0.3099 -0.1775
 2459SOL    MW4 9836   1.786   0.557   4.676  0.2156 -0.3076  0.1150
 2460SOL     OW 9837   1.094   2.317   4.111 -0.3111 -0.7014 -0.1304
 2460SOL    HW2 9838   1.126   2.226   4.111 -0.4674 -0.7569 -0.7675
 2460SOL    HW3 9839   1.168   2.368   4.143 -0.0181 -0.9858 -0.3517
 2460SOL    MW4 9840   1.108   2.311   4.115 -0.2930 -0.7463 -0.2437
 2461SOL     OW 9841   2.262   0.364   4.174 -0.4763 -0.1143  0.0663
 2461SOL    HW2 9842   2.263   0.275   4.211 -0.5569 -0.3962 -0.5944
 2461SOL    HW3 9843   2.238   0.351   4.082  0.6184  0.4798 -0.3187
 2461SOL    MW4 9844   2.259   0.350   4.166 -0.3425 -0.0731 -0.0717
 2462SOL     OW 9845   1.555   1.497   4.152 -0.0085  0.4676 -0.1723
 2462SOL    HW2 9846   1.630   1.539   4.194  0.7804 -0.1509 -0.9351
 2462SOL    HW3 9847   1.557   1.407   4.184 -2.2341  1.2208  2.1778
 2462SOL    MW4 9848   1.565   1.490   4.161 -0.1980  0.4853  0.0371
 2463SOL     OW 9849   1.099   2.810   4.258 -0.0378 -0.4022  0.4574
 2463SOL    HW2 9850   1.097   2.758   4.338  0.8799 -1.9865 -0.4922
 2463SOL    HW3 9851   1.165   2.766   4.204  0.5485  1.6110 -0.5036
 2463SOL    MW4 9852   1.108   2.797   4.261  0.1607 -0.3456  0.2053
 2464SOL     OW 9853   1.567   4.180   4.604 -0.5249  0.2508 -0.1948
 2464SOL    HW2 9854   1.496   4.123   4.574 -1.1168  0.5535  0.6275
 2464SOL    HW3 9855   1.550   4.264   4.560 -0.4967  0.2294 -0.2462
 2464SOL    MW4 9856   1.555   4.184   4.594 -0.5992  0.2879 -0.0931
 2465SOL     OW 9857   1.792   2.708   4.580  0.5016 -0.1609  0.1894
 2465SOL    HW2 9858   1.726   2.777   4.575  0.2741 -0.2735  1.3683
 2465SOL    HW3 9859   1.874   2.751   4.555  0.0470  0.0501 -0.9940
 2465SOL    MW4 9860   1.794   2.722   4.576  0.4116 -0.1479  0.1888
 2466SOL     OW 9861   1.328   2.697   4.077  0.0048 -0.2483 -0.5386
 2466SOL    HW2 9862   1.321   2.618   4.130  0.8974  0.8237  1.2001
 2466SOL    HW3 9863   1.414   2.734   4.098 -0.4539  1.2785 -1.2092
 2466SOL    MW4 9864   1.339   2.692   4.086  0.0621  0.0946 -0.3977
 2467SOL     OW 9865   1.129   3.081   4.203 -0.0845  0.2879 -0.0636
 2467SOL    HW2 9866   1.109   3.012   4.266 -0.1453  0.2860 -0.0847
 2467SOL    HW3 9867   1.112   3.042   4.118  0.8342  0.0095 -0.1285
 2467SOL    MW4 9868   1.124   3.067   4.200  0.0287  0.2509 -0.0749
 2468SOL     OW 9869   0.904   3.493   4.074  0.3023  0.3587 -0.3922
 2468SOL    HW2 9870   0.923   3.407   4.111  0.8770 -0.0277 -1.5634
 2468SOL    HW3 9871   0.898   3.478   3.980 -0.2419  1.4897 -0.5519
 2468SOL    MW4 9872   0.906   3.480   4.067  0.3063  0.4570 -0.5678
 2469SOL     OW 9873   1.133   3.614   4.213 -0.1779  0.3666 -0.6757
 2469SOL    HW2 9874   1.050   3.590   4.172 -0.2275 -0.7172  0.0469
 2469SOL    HW3 9875   1.152   3.702   4.179 -1.9548  0.9106 -0.3287
 2469SOL    MW4 9876   1.125   3.623   4.203 -0.4189  0.2954 -0.5345
 2470SOL     OW 9877   1.143   3.870   4.123 -0.1066 -0.1033 -0.0136
 2470SOL    HW2 9878   1.063   3.911   4.156 -0.1453 -0.3390  0.1813
 2470SOL    HW3 9879   1.213   3.912   4.174 -0.1212 -0.0476 -0.0391
 2470SOL    MW4 9880   1.142   3.881   4.134 -0.1136 -0.1270  0.0088
 2471SOL     OW 9881   4.293   3.554   4.265 -0.1176 -0.8420  0.2554
 2471SOL    HW2 9882   4.365   3.516   4.215  0.3847  0.1929  0.1753
 2471SOL    HW3 9883   4.313   3.534   4.356 -0.3082 -1.5185  0.1505
 2471SOL    MW4 9884   4.305   3.547   4.270 -0.0764 -0.7947  0.2310
 2472SOL     OW 9885   1.385   2.640   4.562 -0.4821  0.0355  0.1468
 2472SOL    HW2 9886   1.408   2.638   4.655 -0.5286  0.0988  0.1598
 2472SOL    HW3 9887   1.442   2.707   4.524 -0.0594 -0.3906  0.0189
 2472SOL    MW4 9888   1.395   2.648   4.569 -0.4325 -0.0124  0.1316
 2473SOL     OW 9889   3.893   4.283   4.504  0.5596 -0.5551 -0.2386
 2473SOL    HW2 9890   3.892   4.208   4.562 -0.5794  1.4962  2.5167
 2473SOL    HW3 9891   3.981   4.320   4.513 -0.0616  0.6106  1.4217
 2473SOL    MW4 9892   3.904   4.278   4.513  0.3274 -0.1307  0.3439
 2474SOL     OW 9893   4.176   0.230   4.544 -0.8480 -0.1527  0.2599
 2474SOL    HW2 9894   4.100   0.224   4.602 -0.6156  0.6917  0.6668
 2474SOL    HW3 9895   4.190   0.325   4.533  0.9420 -0.2845  1.2510
 2474SOL    MW4 9896   4.168   0.242   4.550 -0.5811 -0.0587  0.4443
 2475SOL     OW 9897   2.260   4.222   4.578  0.4042  0.2921 -0.4362
 2475SOL    HW2 9898   2.170   4.249   4.563 -0.0042 -1.5762 -1.6305
 2475SOL    HW3 9899   2.254   4.127   4.592  2.2540 -0.0185 -1.5086
 2475SOL    MW4 9900   2.247   4.213   4.578  0.5944  0.0046 -0.7353
 2476SOL     OW 9901   4.047   2.686   4.148 -0.0482  0.3966 -0.3964
 2476SOL    HW2 9902   3.982   2.740   4.193  0.8562  1.3857 -0.2634
 2476SOL    HW3 9903   4.131   2.716   4.182  0.5345 -0.2547 -1.2334
 2476SOL    MW4 9904   4.049   2.697   4.158  0.1480  0.4412 -0.4893
 2477SOL     OW 9905   1.373   0.020   4.524 -0.2155  0.0800  0.6606
 2477SOL    HW2 9906   1.288   0.003   4.565 -0.9246  0.6762 -0.5413
 2477SOL    HW3 9907   1.402   0.103   4.563  0.1366 -0.4665  1.5718
 2477SOL    MW4 9908   1.366   0.029   4.534 -0.2626  0.0865  0.6223
 2478SOL     OW 9909   1.484   1.659   4.520 -0.1550 -0.0802 -0.3284
 2478SOL    HW2 9910   1.578   1.668   4.508 -0.0741 -1.7776 -1.1011
 2478SOL    HW3 9911   1.448   1.660   4.431 -0.6190 -1.8415 -0.1745
 2478SOL    MW4 9912   1.491   1.661   4.507 -0.2055 -0.5365 -0.4100
 2479SOL     OW 9913   1.290   1.156   4.167 -0.0026 -0.2111  0.5076
 2479SOL    HW2 9914   1.282   1.065   4.195  1.6106 -0.5214  0.0581
 2479SOL    HW3 9915   1.304   1.150   4.072  1.5988  0.4137  0.6950
 2479SOL    MW4 9916   1.291   1.143   4.158  0.4216 -0.1696  0.4730
 2480SOL     OW 9917   2.957   0.070   4.628  0.2843  0.1351 -0.5065
 2480SOL    HW2 9918   2.968   0.121   4.548  0.9246  0.2609 -0.3376
 2480SOL    HW3 9919   2.868   0.034   4.621  1.1532 -1.7702 -2.3852
 2480SOL    MW4 9920   2.947   0.072   4.616  0.4834 -0.0997 -0.7321
 2481SOL     OW 9921   3.477   4.352   4.726  0.3328 -0.3602 -0.2175
 2481SOL    HW2 9922   3.427   4.375   4.648  0.4970 -1.8780 -0.7976
 2481SOL    HW3 9923   3.426   4.389   4.799 -1.0812 -0.9579 -0.8769
 2481SOL    MW4 9924   3.464   4.360   4.726  0.1679 -0.6393 -0.3810
 2482SOL     OW 9925   4.461   0.549   4.586 -0.0663  0.4511  0.6791
 2482SOL    HW2 9926   4.468   0.477   4.649 -0.7782  0.0196  0.2805
 2482SOL    HW3 9927   4.549   0.558   4.550 -0.3333 -1.3831 -0.5019
 2482SOL    MW4 9928   4.473   0.541   4.590 -0.1954  0.1522  0.4707
 2483SOL     OW 9929   0.378   2.492   4.496  0.1091  0.1267 -0.2096
 2483SOL    HW2 9930   0.409   2.469   4.409 -0.7994  2.0370 -1.0666
 2483SOL    HW3 9931   0.437   2.446   4.556  0.1844 -1.9251 -1.8062
 2483SOL    MW4 9932   0.389   2.483   4.493 -0.0008  0.1080 -0.5333
 2484SOL     OW 9933   0.858   2.845   4.618 -0.3072  0.1802  0.0735
 2484SOL    HW2 9934   0.947   2.822   4.593  0.1262  1.1340  0.7174
 2484SOL    HW3 9935   0.829   2.773   4.674  0.0088 -0.1788 -0.2201
 2484SOL    MW4 9936   0.866   2.833   4.622 -0.2083  0.2587  0.1197
 2485SOL     OW 9937   3.119   3.449   4.165 -0.0451  0.5131  0.1075
 2485SOL    HW2 9938   3.123   3.439   4.070  0.4288  0.6147  0.1151
 2485SOL    HW3 9939   3.109   3.360   4.198 -1.4542  0.5926 -0.0977
 2485SOL    MW4 9940   3.119   3.436   4.157 -0.1685  0.5370  0.0814
 2486SOL     OW 9941   2.093   0.680   4.091  0.1698  0.6947  0.2165
 2486SOL    HW2 9942   2.157   0.746   4.119  1.1084  0.0074 -0.2916
 2486SOL    HW3 9943   2.087   0.620   4.166 -0.5968  1.2913  0.6334
 2486SOL    MW4 9944   2.101   0.681   4.105  0.1925  0.6827  0.2045
 2487SOL     OW 9945   2.483   3.813   4.168 -0.1745  0.3540  0.2753
 2487SOL    HW2 9946   2.549   3.874   4.202  0.4563 -0.0099 -0.2970
 2487SOL    HW3 9947   2.495   3.816   4.073  1.8501 -2.8886  0.3717
 2487SOL    MW4 9948   2.493   3.822   4.160  0.1758 -0.1219  0.2125
 2488SOL     OW 9949   0.260   1.541   4.178  0.0032  0.0958 -0.0477
 2488SOL    HW2 9950   0.341   1.589   4.194 -0.3420  0.6758 -0.0450
 2488SOL    HW3 9951   0.282   1.450   4.197  0.3524  0.4053  1.0292
 2488SOL    MW4 9952   0.273   1.535   4.182  0.0037  0.2131  0.0947
 2489SOL     OW 9953   0.464   0.075   4.263 -0.0062  0.3110  0.4077
 2489SOL    HW2 9954   0.552   0.038   4.251  0.1773  0.4705  1.2250
 2489SOL    HW3 9955   0.408   0.024   4.204  0.5115 -0.2514  0.3979
 2489SOL    MW4 9956   0.468   0.064   4.253  0.0863  0.2578  0.5142
 2490SOL     OW 9957   3.029   2.027   4.501 -0.2676 -0.0629 -0.0526
 2490SOL    HW2 9958   3.029   2.122   4.513 -0.1158  0.0588 -0.9386
 2490SOL    HW3 9959   3.120   2.001   4.513  0.0664  0.1923 -1.8037
 2490SOL    MW4 9960   3.041   2.037   4.504 -0.2035 -0.0132 -0.4005
 2491SOL     OW 9961   3.135   4.541   4.631  0.0222  0.0929  0.6129
 2491SOL    HW2 9962   3.075   4.615   4.619 -0.6043 -0.4010  0.7055
 2491SOL    HW3 9963   3.080   4.464   4.618  1.3257 -0.3558 -2.7554
 2491SOL    MW4 9964   3.120   4.541   4.628  0.1116 -0.0315  0.1807
 2492SOL     OW 9965   0.918   3.259   4.201 -0.1255 -0.1201 -0.2767
 2492SOL    HW2 9966   0.998   3.207   4.191 -0.8017 -1.3070  0.3674
 2492SOL    HW3 9967   0.907   3.267   4.296 -0.2710  0.8416 -0.3679
 2492SOL    MW4 9968   0.927   3.253   4.212 -0.2339 -0.1498 -0.2037
 2493SOL     OW 9969   2.227   3.468   4.153 -0.4230  0.0344  0.2820
 2493SOL    HW2 9970   2.169   3.528   4.200 -1.1988  0.1829 -0.8429
 2493SOL    HW3 9971   2.315   3.504   4.168 -0.7613  0.7169  0.6810
 2493SOL    MW4 9972   2.231   3.481   4.161 -0.5700  0.1440  0.1862
 2494SOL     OW 9973   1.812   3.517   4.172 -0.3781 -0.4124 -0.1447
 2494SOL    HW2 9974   1.725   3.552   4.191 -0.0068  0.4696 -0.0536
 2494SOL    HW3 9975   1.815   3.510   4.077 -0.4899 -0.2817 -0.1578
 2494SOL    MW4 9976   1.801   3.521   4.162 -0.3439 -0.2788 -0.1344
 2495SOL     OW 9977   1.362   0.902   4.271  0.0572 -0.3288 -0.0225
 2495SOL    HW2 9978   1.444   0.854   4.256  0.4910 -0.1466  1.6917
 2495SOL    HW3 9979   1.296   0.851   4.224  0.8744 -1.4136 -0.0189
 2495SOL    MW4 9980   1.364   0.889   4.263  0.2223 -0.4479  0.2041
 2496SOL     OW 9981   0.951   0.202   4.513 -0.1615 -0.5121  0.3976
 2496SOL    HW2 9982   1.007   0.279   4.504 -1.1809  0.0305 -1.3750
 2496SOL    HW3 9983   0.875   0.233   4.562  0.9595 -1.2213  2.6939
 2496SOL    MW4 9984   0.948   0.216   4.519 -0.1481 -0.5341  0.4667
 2497SOL     OW 9985   0.703   0.288   4.614 -0.1042 -0.0749 -0.4577
 2497SOL    HW2 9986   0.695   0.382   4.600 -0.3837 -0.2214 -1.3090
 2497SOL    HW3 9987   0.619   0.252   4.587  0.0542 -0.5861 -0.2794
 2497SOL    MW4 9988   0.691   0.296   4.609 -0.1202 -0.1617 -0.5465
 2498SOL     OW 9989   0.462   0.750   4.538  0.1818  0.6084 -0.1624
 2498SOL    HW2 9990   0.445   0.812   4.467 -2.6553  0.4342  0.3031
 2498SOL    HW3 9991   0.458   0.804   4.617  0.0637  0.2392  0.0831
 2498SOL    MW4 9992   0.459   0.765   4.539 -0.2081  0.5367 -0.0686
 2499SOL     OW 9993   1.376   3.177   4.247 -0.0519 -0.1387  0.1902
 2499SOL    HW2 9994   1.286   3.149   4.228 -0.5369  1.4249  0.1340
 2499SOL    HW3 9995   1.378   3.269   4.224  1.6178 -0.1877  0.0851
 2499SOL    MW4 9996   1.364   3.185   4.241  0.1044  0.0611  0.1689
 2500SOL     OW 9997   2.971   0.555   4.239 -0.0386 -0.2222  0.1604
 2500SOL    HW2 9998   2.893   0.509   4.209  0.5312 -0.6424 -0.7274
 2500SOL    HW3 9999   2.970   0.638   4.189  0.3243 -0.4376 -0.2140
 2500SOL    MW410000   2.961   0.560   4.228  0.0845 -0.3060 -0.0061
 2501SOL     OW10001   4.259   2.753   4.312 -0.1352  0.1587 -0.0740
 2501SOL    HW210002   4.343   2.719   4.280  0.4230  1.3705  0.1102
 2501SOL    HW310003   4.260   2.845   4.289 -2.1262 -0.1587 -1.5271
 2501SOL    MW410004   4.270   2.760   4.304 -0.3242  0.2767 -0.2414
 2502SOL     OW10005   2.271   0.660   4.640  0.0944 -0.3781  0.4897
 2502SOL    HW210006   2.240   0.746   4.613 -2.2599 -0.8136  1.6743
 2502SOL    HW310007   2.200   0.600   4.616  1.1333 -1.7963  0.8727
 2502SOL    MW410008   2.258   0.663   4.633 -0.0791 -0.6227  0.6965
 2503SOL     OW10009   3.575   3.457   4.196 -0.3248  0.3145  0.2148
 2503SOL    HW210010   3.495   3.497   4.230 -0.1082  0.8020  0.1660
 2503SOL    HW310011   3.577   3.369   4.234 -0.2893  0.7095  1.1436
 2503SOL    MW410012   3.565   3.451   4.206 -0.2915  0.4309  0.3309
 2504SOL     OW10013   1.547   1.226   4.247  0.4251 -0.0614 -0.2086
 2504SOL    HW210014   1.463   1.189   4.220  1.1040 -1.3250 -0.6431
 2504SOL    HW310015   1.612   1.172   4.202  1.4639  1.1077 -0.1280
 2504SOL    MW410016   1.544   1.214   4.238  0.6517 -0.0739 -0.2553
 2505SOL     OW10017   2.280   0.026   4.541 -0.0246  0.3586  0.0819
 2505SOL    HW210018   2.356   0.065   4.582  0.1040  0.5395 -0.3239
 2505SOL    HW310019   2.305  -0.065   4.526  0.4459  0.6341 -0.8588
 2505SOL    MW410020   2.293   0.019   4.544  0.0545  0.4188 -0.0958
 2506SOL     OW10021   2.020   1.507   4.171 -0.3870  0.1424 -0.2284
 2506SOL    HW210022   2.021   1.503   4.076 -0.0206  2.6331 -0.3763
 2506SOL    HW310023   2.098   1.558   4.193  0.4241 -1.8120  1.4984
 2506SOL    MW410024   2.030   1.513   4.161 -0.2316  0.2131 -0.0201
 2507SOL     OW10025   1.344   0.374   4.146 -0.8807 -0.2409 -0.4528
 2507SOL    HW210026   1.266   0.414   4.186  0.2684  0.9277  0.6490
 2507SOL    HW310027   1.346   0.286   4.182 -1.5914 -0.2249 -0.3510
 2507SOL    MW410028   1.334   0.368   4.156 -0.8228 -0.0846 -0.2940
 2508SOL     OW10029   1.793   1.892   4.152  0.2791  0.1035  0.3753
 2508SOL    HW210030   1.720   1.950   4.174 -0.6966 -0.6019 -0.9236
 2508SOL    HW310031   1.871   1.938   4.183 -0.5694  1.6317  0.2862
 2508SOL    MW410032   1.794   1.905   4.159  0.0384  0.2121  0.1922
 2509SOL     OW10033   1.790   2.432   4.522 -0.4826 -0.4512  0.2268
 2509SOL    HW210034   1.849   2.381   4.577 -2.0283 -1.3717  1.0878
 2509SOL    HW310035   1.818   2.522   4.533  0.3738 -0.8131  1.1118
 2509SOL    MW410036   1.801   2.437   4.531 -0.5735 -0.6204  0.4572
 2510SOL     OW10037   2.980   1.504   4.707  0.9148  0.1371  0.3017
 2510SOL    HW210038   3.063   1.525   4.664  0.0258  1.1192 -0.9691
 2510SOL    HW310039   2.982   1.556   4.788  1.5809  0.0502  0.3495
 2510SOL    MW410040   2.991   1.514   4.712  0.8854  0.2552  0.1404
 2511SOL     OW10041   2.726   4.625   4.552  0.0001 -0.0936 -0.5213
 2511SOL    HW210042   2.699   4.533   4.551  0.2105 -0.1500 -0.7683
 2511SOL    HW310043   2.653   4.670   4.596 -0.8398 -0.1438 -1.8458
 2511SOL    MW410044   2.713   4.619   4.558 -0.0829 -0.1076 -0.7287
 2512SOL     OW10045   3.181   0.145   4.191 -0.2203  0.3045  0.3571
 2512SOL    HW210046   3.203   0.235   4.167  0.4103  0.8620  2.8755
 2512SOL    HW310047   3.260   0.095   4.171  0.3552  0.7878  1.3726
 2512SOL    MW410048   3.194   0.150   4.185 -0.0612  0.4418  0.8234
 2513SOL     OW10049   0.477   0.900   4.299  0.4215  0.0986 -0.2235
 2513SOL    HW210050   0.551   0.851   4.263 -0.3140 -0.3339 -1.1508
 2513SOL    HW310051   0.402   0.871   4.248 -0.4470  0.3023  0.9307
 2513SOL    MW410052   0.477   0.890   4.288  0.2098  0.0684 -0.1936
 2514SOL     OW10053   2.009   3.074   4.171 -0.6149  0.3383  0.4673
 2514SOL    HW210054   1.936   3.133   4.191 -0.3266  0.8292  0.0943
 2514SOL    HW310055   2.021   3.083   4.076  0.8077  1.2877  0.7325
 2514SOL    MW410056   2.001   3.083   4.161 -0.3892  0.5284  0.4531
 2515SOL     OW10057   2.929   3.560   4.597 -0.5672 -0.1296  0.6849
 2515SOL    HW210058   3.025   3.568   4.598 -0.6774  1.3311  0.4100
 2515SOL    HW310059   2.898   3.635   4.647 -1.6091  0.2502 -0.5103
 2515SOL    MW410060   2.938   3.571   4.603 -0.7192  0.1132  0.4910
 2516SOL     OW10061   2.052   3.638   4.269  0.1141 -0.0755 -0.2185
 2516SOL    HW210062   2.059   3.720   4.220 -0.0038  0.2984  0.3917
 2516SOL    HW310063   1.969   3.600   4.240  0.0037  0.1872 -0.2488
 2516SOL    MW410064   2.042   3.644   4.258  0.0840  0.0085 -0.1420
 2517SOL     OW10065   2.980   2.789   4.517  0.0399  0.1612 -0.0760
 2517SOL    HW210066   3.075   2.778   4.513 -0.0919 -1.2548  0.5105
 2517SOL    HW310067   2.949   2.762   4.430  0.0677 -0.5261  0.1252
 2517SOL    MW410068   2.988   2.784   4.505  0.0262 -0.1163  0.0279
 2518SOL     OW10069   3.015   0.218   4.408 -0.3252 -0.0831 -0.3033
 2518SOL    HW210070   3.053   0.281   4.469 -1.0740 -0.7296  0.8455
 2518SOL    HW310071   3.087   0.197   4.348  0.9899 -0.8339  1.4764
 2518SOL    MW410072   3.029   0.223   4.408 -0.2505 -0.2675  0.0830
 2519SOL     OW10073   4.457   1.925   4.646 -0.6261 -0.0181  0.3450
 2519SOL    HW210074   4.530   1.986   4.656 -0.9262  0.5983 -1.1601
 2519SOL    HW310075   4.498   1.843   4.617 -0.5259  0.3063 -0.4291
 2519SOL    MW410076   4.472   1.922   4.643 -0.6525  0.1060  0.0443
 2520SOL     OW10077   0.660   2.903   4.246  0.2572 -0.1111  0.7386
 2520SOL    HW210078   0.727   2.842   4.214  0.3674  0.2973  0.1777
 2520SOL    HW310079   0.681   2.915   4.339  0.0043 -1.2218  0.9461
 2520SOL    MW410080   0.672   2.896   4.254  0.2384 -0.2037  0.6920
 2521SOL     OW10081   0.027   0.061   4.197  0.6131 -0.0158 -0.5742
 2521SOL    HW210082   0.031   0.155   4.179 -0.1754  0.3169  0.8445
 2521SOL    HW310083   0.043   0.054   4.291  1.6373 -1.3983 -0.8330
 2521SOL    MW410084   0.029   0.073   4.207  0.6442 -0.1543 -0.4212
 2522SOL     OW10085   3.722   4.488   4.621  0.3356  0.1290  0.8145
 2522SOL    HW210086   3.779   4.428   4.573 -0.1925  0.2296  0.0424
 2522SOL    HW310087   3.658   4.430   4.664 -1.7353  0.2384 -1.9956
 2522SOL    MW410088   3.721   4.472   4.620 -0.0073  0.1567  0.3419
 2523SOL     OW10089   2.502   4.641   4.156  0.3041 -0.0403  0.1817
 2523SOL    HW210090   2.585   4.670   4.194 -0.2590 -0.1240  1.5297
 2523SOL    HW310091   2.436   4.698   4.196 -0.5649 -1.6671  1.1241
 2523SOL    MW410092   2.504   4.652   4.166  0.1152 -0.2659  0.4839
 2524SOL     OW10093   3.878   4.612   4.210 -0.0400  0.3086 -0.0876
 2524SOL    HW210094   3.867   4.519   4.229 -1.3058  0.4545 -0.0906
 2524SOL    HW310095   3.861   4.620   4.117  0.7284  0.4428 -0.2191
 2524SOL    MW410096   3.875   4.601   4.201 -0.1056  0.3455 -0.1054
 2525SOL     OW10097   0.032   2.370   4.286  0.1755  0.3025  0.2588
 2525SOL    HW210098   0.101   2.315   4.248 -0.5334  0.3485 -1.1257
 2525SOL    HW310099  -0.048   2.342   4.242 -0.6391  0.5206  1.5789
 2525SOL    MW410100   0.031   2.359   4.275 -0.0255  0.3374  0.2503
 2526SOL     OW10101   2.500   0.741   4.174  0.0976 -0.0886  0.5972
 2526SOL    HW210102   2.513   0.657   4.217  0.9047 -0.3060 -0.0648
 2526SOL    HW310103   2.516   0.724   4.081  0.0969  0.7588  0.4314
 2526SOL    MW410104   2.504   0.728   4.167  0.2040 -0.0055  0.4880
 2527SOL     OW10105   2.948   1.240   4.294  0.1805  0.1590  0.5677
 2527SOL    HW210106   2.864   1.209   4.262  0.2018 -0.1437  0.8035
 2527SOL    HW310107   3.012   1.205   4.232  0.1233  0.4709  0.3326
 2527SOL    MW410108   2.945   1.231   4.281  0.1758  0.1602  0.5678
 2528SOL     OW10109   1.751   1.077   4.131  0.1229  0.4764  0.0203
 2528SOL    HW210110   1.780   0.992   4.164  0.1721  0.2041 -0.6980
 2528SOL    HW310111   1.819   1.139   4.158 -0.0075  0.3207  0.7067
 2528SOL    MW410112   1.764   1.074   4.139  0.1122  0.4199  0.0161
 2529SOL     OW10113   1.798   1.632   4.263 -0.5906  0.1734 -0.4477
 2529SOL    HW210114   1.886   1.599   4.247 -0.9205 -0.3531 -1.2434
 2529SOL    HW310115   1.798   1.720   4.227 -0.5231  0.0045 -0.8630
 2529SOL    MW410116   1.809   1.639   4.256 -0.6252  0.0817 -0.6075
 2530SOL     OW10117   1.866   0.835   4.212 -0.0314 -0.3123 -0.1344
 2530SOL    HW210118   1.941   0.794   4.169  0.2570  0.8692 -0.7788
 2530SOL    HW310119   1.900   0.866   4.296 -0.1213 -0.9373  0.1321
 2530SOL    MW410120   1.880   0.834   4.217 -0.0052 -0.2389 -0.1843
 2531SOL     OW10121   3.856   1.530   4.153 -0.4832 -0.2842 -0.1351
 2531SOL    HW210122   3.930   1.571   4.198 -0.5379 -0.9028  0.5390
 2531SOL    HW310123   3.839   1.450   4.203  0.5034 -1.8424 -2.2620
 2531SOL    MW410124   3.863   1.525   4.166 -0.3603 -0.5714 -0.3268
 2532SOL     OW10125   2.019   2.027   4.286 -0.0170  0.5171 -0.1606
 2532SOL    HW210126   2.000   2.110   4.243  0.4092  0.8317  0.2522
 2532SOL    HW310127   1.979   2.036   4.373  0.2871  0.4099 -0.0084
 2532SOL    MW410128   2.011   2.039   4.292  0.0793  0.5444 -0.0860
 2533SOL     OW10129   3.835   1.774   4.642 -0.3770 -0.0476 -0.3115
 2533SOL    HW210130   3.926   1.747   4.629 -0.6440 -1.2311  0.1936
 2533SOL    HW310131   3.839   1.869   4.650  1.0186 -0.2235  1.3523
 2533SOL    MW410132   3.847   1.783   4.642 -0.2281 -0.2270 -0.0253
 2534SOL     OW10133   0.241   0.286   4.593 -0.0663  0.1686 -0.2659
 2534SOL    HW210134   0.239   0.377   4.564  1.0744 -0.1100 -1.2716
 2534SOL    HW310135   0.331   0.258   4.576 -0.6602 -1.4163 -0.8321
 2534SOL    MW410136   0.252   0.294   4.587  0.0059 -0.0773 -0.4733
 2535SOL     OW10137   3.872   3.272   4.539 -0.0574 -0.1349 -0.0392
 2535SOL    HW210138   3.899   3.222   4.616  0.5578 -0.6736 -0.6032
 2535SOL    HW310139   3.944   3.263   4.477 -1.0199 -0.6103 -1.1121
 2535SOL    MW410140   3.885   3.264   4.541 -0.1033 -0.2687 -0.2551
 2536SOL     OW10141   2.254   2.695   4.170 -0.5919  0.3963  0.4587
 2536SOL    HW210142   2.185   2.725   4.229 -0.0865  1.2040  0.6599
 2536SOL    HW310143   2.334   2.732   4.207  0.2010 -2.0396  1.2678
 2536SOL    MW410144   2.256   2.704   4.183 -0.4206  0.1815  0.5920
 2537SOL     OW10145   1.734   2.408   4.243  0.0656  0.1467 -0.7740
 2537SOL    HW210146   1.819   2.368   4.221 -0.7010 -1.5324 -0.7794
 2537SOL    HW310147   1.725   2.394   4.337  0.6840  2.1190 -0.3947
 2537SOL    MW410148   1.744   2.401   4.253  0.0460  0.1854 -0.7247
 2538SOL     OW10149   2.094   3.315   4.884 -0.1346  0.3903 -0.1155
 2538SOL    HW210150   2.099   3.341   4.975 -1.4028  0.7801 -0.1382
 2538SOL    HW310151   2.167   3.359   4.841 -0.2555  1.1798  0.4826
 2538SOL    MW410152   2.104   3.324   4.890 -0.3179  0.5459 -0.0396
 2539SOL     OW10153   0.668   0.562   4.533 -0.1625  0.0283 -0.5521
 2539SOL    HW210154   0.600   0.625   4.554 -1.1063 -1.2652  0.3582
 2539SOL    HW310155   0.744   0.589   4.585  0.0181  1.4435 -1.5385
 2539SOL    MW410156   0.669   0.574   4.542 -0.2632  0.0444 -0.5621
 2540SOL     OW10157   2.186   0.890   4.479  0.2019  0.1502  0.2467
 2540SOL    HW210158   2.092   0.895   4.492  0.4685 -0.8075  2.7189
 2540SOL    HW310159   2.218   0.979   4.496 -0.1162  0.1791  0.6928
 2540SOL    MW410160   2.178   0.903   4.483  0.1951  0.0277  0.6318
 2541SOL     OW10161   0.049   0.324   4.140  0.0017 -0.3800  0.0171
 2541SOL    HW210162   0.035   0.322   4.045 -0.8678 -1.3555  0.1582
 2541SOL    HW310163  -0.025   0.374   4.174 -0.3345 -1.0667  0.2939
 2541SOL    MW410164   0.037   0.330   4.132 -0.1574 -0.5993  0.0722
 2542SOL     OW10165   1.840   0.388   4.139  0.0937  0.3112  0.4697
 2542SOL    HW210166   1.753   0.412   4.171 -0.4890 -0.1577 -0.7272
 2542SOL    HW310167   1.847   0.294   4.153  0.4148  0.3449  0.5579
 2542SOL    MW410168   1.830   0.379   4.145  0.0592  0.2538  0.3234
 2543SOL     OW10169   3.313   2.182   4.672  0.1976 -0.2348  0.4759
 2543SOL    HW210170   3.404   2.211   4.675 -0.1807  1.2783 -1.4265
 2543SOL    HW310171   3.308   2.127   4.593 -0.5642 -0.2424  0.5276
 2543SOL    MW410172   3.324   2.178   4.662  0.0471 -0.0362  0.2317
 2544SOL     OW10173   2.043   4.377   4.258 -0.2114 -0.0990 -0.0684
 2544SOL    HW210174   2.024   4.351   4.348  0.7283 -1.6687 -0.3203
 2544SOL    HW310175   2.129   4.340   4.240  0.2855  1.4974 -1.1136
 2544SOL    MW410176   2.052   4.369   4.268 -0.0218 -0.0955 -0.2396
 2545SOL     OW10177   2.275   0.103   4.272 -0.1216 -0.2149  0.1497
 2545SOL    HW210178   2.272   0.078   4.364  0.7610  0.6557  0.4175
 2545SOL    HW310179   2.195   0.064   4.234 -0.7611 -0.1269  1.3874
 2545SOL    MW410180   2.264   0.095   4.279 -0.0896 -0.0884  0.3483
 2546SOL     OW10181   2.300   3.942   4.603 -0.1501 -0.3452 -0.6528
 2546SOL    HW210182   2.299   3.925   4.509 -0.7670 -2.0263 -0.3616
 2546SOL    HW310183   2.223   3.895   4.636  0.2008  0.0387  0.7232
 2546SOL    MW410184   2.290   3.934   4.595 -0.1852 -0.5163 -0.4328
 2547SOL     OW10185   3.208   0.419   4.125  0.1278 -0.1852 -0.2480
 2547SOL    HW210186   3.135   0.454   4.178  0.4403  1.3549 -0.7929
 2547SOL    HW310187   3.287   0.452   4.169  0.4329 -0.1983 -0.7909
 2547SOL    MW410188   3.208   0.428   4.138  0.2093  0.0163 -0.3915
 2548SOL     OW10189   0.087   0.077   4.490  0.2819  0.1416  0.1740
 2548SOL    HW210190   0.142  -0.001   4.499  0.0765 -0.1493 -1.0158
 2548SOL    HW310191   0.144   0.149   4.518  1.3861 -0.1287 -1.2578
 2548SOL    MW410192   0.102   0.077   4.495  0.4005  0.0676 -0.1719
 2549SOL     OW10193   0.851   2.099   4.463  0.5613  0.8150 -0.0208
 2549SOL    HW210194   0.847   2.195   4.466 -0.8191  0.7179  1.8857
 2549SOL    HW310195   0.936   2.078   4.502  0.0257  1.1864  1.3579
 2549SOL    MW410196   0.862   2.109   4.468  0.3085  0.8512  0.4126
 2550SOL     OW10197   1.123   2.071   4.440  0.6576 -0.3932 -0.0038
 2550SOL    HW210198   1.206   2.032   4.467  0.8838  0.8557  1.1913
 2550SOL    HW310199   1.113   2.046   4.348  2.4472 -0.4108 -0.2151
 2550SOL    MW410200   1.133   2.063   4.431  0.9236 -0.2308  0.1260
 2551SOL     OW10201   4.462   1.659   4.524 -0.0774 -0.7695 -0.5305
 2551SOL    HW210202   4.527   1.589   4.527 -0.2694 -0.9216  0.3051
 2551SOL    HW310203   4.440   1.668   4.431 -0.8073 -2.5259 -0.5535
 2551SOL    MW410204   4.467   1.651   4.512 -0.1991 -1.0213 -0.4233
 2552SOL     OW10205   2.719   1.156   4.136 -0.6304 -0.1678  0.2238
 2552SOL    HW210206   2.694   1.067   4.158  0.5692 -0.7768 -0.7781
 2552SOL    HW310207   2.717   1.158   4.040  0.6222  0.4857  0.1989
 2552SOL    MW410208   2.716   1.145   4.126 -0.3069 -0.1619  0.0883
 2553SOL     OW10209   3.218   1.545   4.564  0.2572  0.1122  0.5131
 2553SOL    HW210210   3.274   1.614   4.601 -0.0713  1.2221 -0.9918
 2553SOL    HW310211   3.211   1.568   4.471 -0.0884 -1.8109  0.0505
 2553SOL    MW410212   3.224   1.557   4.557  0.1682  0.0049  0.2535
 2554SOL     OW10213   1.758   1.362   4.583 -0.2307  0.4760  0.6066
 2554SOL    HW210214   1.829   1.303   4.557 -0.6349  1.1436 -2.1002
 2554SOL    HW310215   1.678   1.313   4.564 -0.5557  1.5634 -0.9556
 2554SOL    MW410216   1.757   1.347   4.577 -0.3269  0.7075  0.0434
 2555SOL     OW10217   2.475   1.561   4.160  0.2906  0.1577 -0.3091
 2555SOL    HW210218   2.560   1.588   4.194  0.7653 -0.5091 -0.9460
 2555SOL    HW310219   2.492   1.534   4.070 -0.7584  0.8825 -0.7504
 2555SOL    MW410220   2.488   1.561   4.152  0.2148  0.1654 -0.4514
 2556SOL     OW10221   2.729   2.019   4.090  0.6711  0.0896 -0.2197
 2556SOL    HW210222   2.719   1.959   4.017  0.3383  0.8056 -0.7673
 2556SOL    HW310223   2.776   1.969   4.157 -0.9052 -1.2350 -0.0987
 2556SOL    MW410224   2.734   2.005   4.089  0.4192  0.0093 -0.2759
 2557SOL     OW10225   2.728   0.043   4.276  0.0184  0.3464  0.2650
 2557SOL    HW210226   2.740   0.136   4.294 -0.7000  0.1265  2.0504
 2557SOL    HW310227   2.717   0.003   4.363 -1.8585 -1.0929 -0.5870
 2557SOL    MW410228   2.728   0.050   4.290 -0.3240  0.1275  0.3882
 2558SOL     OW10229   1.814   4.474   4.601  0.1502 -0.6040 -0.0215
 2558SOL    HW210230   1.724   4.449   4.580  0.3533 -0.5140 -1.0769
 2558SOL    HW310231   1.820   4.566   4.575 -0.2553  0.2271  2.7203
 2558SOL    MW410232   1.803   4.483   4.595  0.1235 -0.4825  0.2010
 2559SOL     OW10233   0.225   4.504   4.530 -0.0506 -0.2934  0.1112
 2559SOL    HW210234   0.249   4.460   4.449  0.7844  0.9317 -0.3041
 2559SOL    HW310235   0.309   4.533   4.567 -0.4755 -0.3387  1.1268
 2559SOL    MW410236   0.240   4.502   4.525  0.0035 -0.1377  0.1904
 2560SOL     OW10237   0.129   2.799   4.735 -0.1710 -0.0774  0.5378
 2560SOL    HW210238   0.080   2.717   4.723  0.6047 -0.3531 -0.9214
 2560SOL    HW310239   0.210   2.785   4.685  1.2619  0.4745  2.6695
 2560SOL    MW410240   0.133   2.786   4.727  0.1204 -0.0410  0.6265
 2561SOL     OW10241   2.969   3.053   4.597  0.3056  0.2641 -0.1718
 2561SOL    HW210242   2.880   3.087   4.599  0.3915  0.4320  2.6077
 2561SOL    HW310243   2.961   2.963   4.567 -0.6988  0.5785 -0.8439
 2561SOL    MW410244   2.956   3.046   4.593  0.1844  0.3277  0.1062
 2562SOL     OW10245   1.345   3.447   4.150  0.2722  0.1021 -0.0909
 2562SOL    HW210246   1.277   3.506   4.183  2.1161  3.0320 -1.3214
 2562SOL    HW310247   1.341   3.457   4.055  0.6941 -1.6972 -0.3100
 2562SOL    MW410248   1.335   3.456   4.142  0.5712  0.2513 -0.2821
 2563SOL     OW10249   2.476   3.551   4.246  0.5451 -0.2712 -0.4450
 2563SOL    HW210250   2.472   3.646   4.231 -1.4852 -0.4601 -1.2970
 2563SOL    HW310251   2.501   3.542   4.338 -2.2688  1.1770  0.5322
 2563SOL    MW410252   2.479   3.563   4.256 -0.0940 -0.1050 -0.4285
 2564SOL     OW10253   4.486   4.342   4.583 -0.1331 -0.6808 -0.2092
 2564SOL    HW210254   4.560   4.404   4.583  1.6299 -2.6746  2.9001
 2564SOL    HW310255   4.430   4.372   4.655 -0.6631 -1.1124 -0.4412
 2564SOL    MW410256   4.488   4.354   4.593  0.0296 -1.0008  0.1704
 2565SOL     OW10257   3.218   2.459   4.444  0.0331  0.0325  0.6020
 2565SOL    HW210258   3.305   2.419   4.450 -0.7357 -1.6419  0.7389
 2565SOL    HW310259   3.183   2.429   4.360  0.1919  1.9851 -0.1923
 2565SOL    MW410260   3.225   2.450   4.434 -0.0474  0.0692  0.5153
 2566SOL     OW10261   2.918   3.851   4.169 -0.5583  0.3229  0.3026
 2566SOL    HW210262   3.007   3.884   4.182  0.0373 -0.9755 -0.3713
 2566SOL    HW310263   2.916   3.767   4.214 -1.1859 -0.0514 -0.3960
 2566SOL    MW410264   2.929   3.844   4.176 -0.5626  0.1022  0.1215
 2567SOL     OW10265   1.645   3.099   4.160 -0.1717 -0.2287  0.0503
 2567SOL    HW210266   1.706   3.157   4.204  0.0767 -0.7588  0.4087
 2567SOL    HW310267   1.558   3.129   4.187 -0.0323 -0.2641  0.5323
 2567SOL    MW410268   1.642   3.111   4.169 -0.1205 -0.3033  0.1612
 2568SOL     OW10269   2.712   4.213   4.209 -0.0279  0.2589 -0.0099
 2568SOL    HW210270   2.651   4.278   4.243 -0.2237  0.4602 -0.7401
 2568SOL    HW310271   2.699   4.215   4.114  0.6092 -0.2016 -0.1093
 2568SOL    MW410272   2.702   4.222   4.201  0.0304  0.2247 -0.1193
 2569SOL     OW10273   0.850   2.725   4.174  0.3096 -0.2477 -0.1274
 2569SOL    HW210274   0.847   2.634   4.204 -1.4472  0.4524  2.0024
 2569SOL    HW310275   0.937   2.756   4.200  0.8203 -1.2423 -0.6408
 2569SOL    MW410276   0.861   2.717   4.182  0.1452 -0.2865  0.0859
 2570SOL     OW10277   3.165   3.973   4.273  0.4305 -0.2050 -0.0114
 2570SOL    HW210278   3.246   3.923   4.265  1.9278  1.8485  1.6584
 2570SOL    HW310279   3.179   4.049   4.215 -0.9061 -0.5862 -0.8379
 2570SOL    MW410280   3.178   3.976   4.264  0.4517  0.0156  0.0999
 2571SOL     OW10281   4.070   2.430   4.222 -0.0592  0.4958 -0.3832
 2571SOL    HW210282   4.059   2.515   4.179 -0.7821 -0.0734 -1.3349
 2571SOL    HW310283   3.982   2.392   4.223  0.2523 -0.2258  0.0910
 2571SOL    MW410284   4.057   2.436   4.217 -0.1135  0.3255 -0.4462
 2572SOL     OW10285   1.559   3.602   4.248 -0.1237  0.5904  0.1334
 2572SOL    HW210286   1.503   3.529   4.222  2.9041 -1.9003  0.3416
 2572SOL    HW310287   1.543   3.613   4.342  0.6497 -0.9310  0.4477
 2572SOL    MW410288   1.550   3.594   4.257  0.3779  0.0610  0.2024
 2573SOL     OW10289   3.431   0.755   4.145 -0.4525  0.1384 -0.0035
 2573SOL    HW210290   3.438   0.670   4.189  0.8413 -0.4443 -1.2871
 2573SOL    HW310291   3.494   0.811   4.191 -2.0347  0.7268  1.5072
 2573SOL    MW410292   3.440   0.751   4.157 -0.4906  0.1392  0.0265
 2574SOL     OW10293   3.201   0.910   4.218  0.5284  0.2252 -0.0512
 2574SOL    HW210294   3.127   0.869   4.174  1.4542 -1.1547 -0.3368
 2574SOL    HW310295   3.278   0.868   4.181  1.4919  2.0413 -0.1605
 2574SOL    MW410296   3.201   0.899   4.208  0.7777  0.2828 -0.1033
 2575SOL     OW10297   0.145   3.658   4.527  0.0747 -0.1673  0.6484
 2575SOL    HW210298   0.217   3.596   4.541  0.6165  0.1191 -0.8311
 2575SOL    HW310299   0.180   3.742   4.557  0.3620 -0.0281 -0.0705
 2575SOL    MW410300   0.159   3.661   4.533  0.1841 -0.1111  0.3584
 2576SOL     OW10301   3.149   1.169   4.108 -0.2934  0.0445  0.2428
 2576SOL    HW210302   3.166   1.079   4.133  1.4450  0.1786 -0.3680
 2576SOL    HW310303   3.123   1.164   4.016 -0.2000  0.1494  0.2099
 2576SOL    MW410304   3.148   1.157   4.099 -0.0517  0.0760  0.1579
 2577SOL     OW10305   1.538   1.220   4.517  0.0185  0.0624  0.4945
 2577SOL    HW210306   1.465   1.270   4.554  1.3890  0.8087  2.2160
 2577SOL    HW310307   1.531   1.235   4.422 -0.0562  2.9113  0.9045
 2577SOL    MW410308   1.527   1.229   4.509  0.1895  0.5368  0.7757
 2578SOL     OW10309   4.082   3.950   4.270 -0.0483 -0.1640  0.1943
 2578SOL    HW210310   4.166   3.915   4.241 -0.5079 -0.4244 -0.8381
 2578SOL    HW310311   4.098   3.981   4.359  1.2612  0.2227 -0.1740
 2578SOL    MW410312   4.095   3.950   4.278  0.0638 -0.1473  0.0095
 2579SOL     OW10313   3.622   1.924   4.184 -0.1409 -0.2764  0.3293
 2579SOL    HW210314   3.634   1.937   4.089 -1.0548  0.6311  0.3281
 2579SOL    HW310315   3.623   1.829   4.195 -0.9509 -0.4251 -0.7318
 2579SOL    MW410316   3.624   1.913   4.173 -0.3684 -0.1763  0.1891
 2580SOL     OW10317   3.178   3.525   4.499 -0.1264  0.2361 -0.2083
 2580SOL    HW210318   3.258   3.527   4.552 -0.9643  1.6010  1.0403
 2580SOL    HW310319   3.161   3.432   4.484  0.4056 -0.1414  1.4835
 2580SOL    MW410320   3.186   3.513   4.504 -0.1668  0.3664  0.1797
 2581SOL     OW10321   2.690   3.195   4.264 -0.4860 -0.2368  0.3975
 2581SOL    HW210322   2.745   3.138   4.211 -1.7511 -0.5345 -0.6172
 2581SOL    HW310323   2.712   3.283   4.235 -1.0134 -0.3861 -0.4801
 2581SOL    MW410324   2.700   3.199   4.253 -0.7225 -0.2958  0.1479
 2582SOL     OW10325   2.275   3.920   4.330  0.6531 -0.3165  0.4004
 2582SOL    HW210326   2.192   3.917   4.282  1.0159 -0.9153 -0.2172
 2582SOL    HW310327   2.338   3.877   4.271  1.3546 -0.0515  0.9434
 2582SOL    MW410328   2.272   3.914   4.316  0.7935 -0.3605  0.3906
 2583SOL     OW10329   3.600   4.182   4.182 -0.0191 -0.0522  0.3607
 2583SOL    HW210330   3.611   4.117   4.252  0.0636  0.2810  0.6559
 2583SOL    HW310331   3.682   4.231   4.182 -0.0928  0.0717  0.1527
 2583SOL    MW410332   3.612   4.180   4.191 -0.0179  0.0081  0.3722
 2584SOL     OW10333   3.095   2.366   4.215 -0.0607 -0.1679  0.2243
 2584SOL    HW210334   3.010   2.332   4.189  0.3757 -0.6623 -0.5358
 2584SOL    HW310335   3.093   2.458   4.189 -0.4724 -0.1050  0.4737
 2584SOL    MW410336   3.083   2.374   4.208 -0.0574 -0.2249  0.1569
 2585SOL     OW10337   2.020   3.273   4.490  0.2826 -0.4054  0.5394
 2585SOL    HW210338   2.040   3.249   4.580 -1.1674 -1.8316  0.5087
 2585SOL    HW310339   2.095   3.243   4.439  0.8599 -0.0781  1.1937
 2585SOL    MW410340   2.032   3.266   4.495  0.1675 -0.5504  0.6217
 2586SOL     OW10341   1.591   0.483   4.218 -0.7007 -0.7563  0.2384
 2586SOL    HW210342   1.504   0.447   4.201 -1.0002 -1.0846  2.2945
 2586SOL    HW310343   1.579   0.577   4.223 -0.8518 -0.7655  0.0095
 2586SOL    MW410344   1.578   0.491   4.216 -0.7602 -0.8008  0.4795
 2587SOL     OW10345   0.919   3.977   4.490 -0.1355  0.2221  0.5336
 2587SOL    HW210346   0.964   3.893   4.500 -1.0082 -0.3410 -0.2310
 2587SOL    HW310347   0.988   4.042   4.503  1.5116 -0.6399 -3.1872
 2587SOL    MW410348   0.934   3.975   4.493 -0.0333  0.0340 -0.0582
 2588SOL     OW10349   2.538   2.897   4.664  0.2030 -0.1242  0.2134
 2588SOL    HW210350   2.617   2.851   4.694  0.0766 -0.7200 -0.3651
 2588SOL    HW310351   2.572   2.971   4.613  0.3920 -0.4816 -0.1872
 2588SOL    MW410352   2.553   2.900   4.661  0.2112 -0.2500  0.0842
 2589SOL     OW10353   3.624   3.928   4.331 -0.2944  0.2920 -0.4202
 2589SOL    HW210354   3.550   3.884   4.290 -0.3888 -0.1349  0.2024
 2589SOL    HW310355   3.701   3.895   4.284 -0.3034 -1.0630  0.4712
 2589SOL    MW410356   3.625   3.918   4.319 -0.3080  0.0569 -0.2204
 2590SOL     OW10357   2.541   3.329   4.856 -0.1718 -0.2029 -0.5505
 2590SOL    HW210358   2.580   3.353   4.941 -1.1113  0.3463 -0.2679
 2590SOL    HW310359   2.603   3.362   4.791  0.7907 -1.0361 -0.0817
 2590SOL    MW410360   2.554   3.336   4.859 -0.1687 -0.2404 -0.4514
 2591SOL     OW10361   3.302   2.018   4.467  0.4450  0.8918 -0.2566
 2591SOL    HW210362   3.317   1.932   4.507  0.1694  0.9029 -0.1343
 2591SOL    HW310363   3.302   2.000   4.373 -0.6213  0.5980 -0.2092
 2591SOL    MW410364   3.304   2.004   4.460  0.2679  0.8545 -0.2342
 2592SOL     OW10365   3.641   4.095   4.798 -0.1133  0.2244  0.2357
 2592SOL    HW210366   3.585   4.159   4.755 -0.9625 -0.5694  0.1349
 2592SOL    HW310367   3.653   4.026   4.733  0.0751 -0.1248  0.6374
 2592SOL    MW410368   3.635   4.094   4.784 -0.2005  0.0736  0.2754
 2593SOL     OW10369   2.857   2.422   4.768 -0.3990  0.5028  0.2395
 2593SOL    HW210370   2.930   2.377   4.726  0.3712  0.8380  1.1972
 2593SOL    HW310371   2.792   2.353   4.782 -0.8139  0.4478 -1.7709
 2593SOL    MW410372   2.858   2.407   4.764 -0.3521  0.5398  0.1006
 2594SOL     OW10373   4.280   1.587   4.715 -0.5959 -0.5454 -0.2497
 2594SOL    HW210374   4.349   1.603   4.651 -0.0276  0.6003  0.6042
 2594SOL    HW310375   4.327   1.568   4.796 -1.2855 -0.6599  0.1277
 2594SOL    MW410376   4.296   1.587   4.717 -0.6119 -0.4094 -0.0873
 2595SOL     OW10377   0.945   1.851   4.092 -0.1297  0.6031 -0.1995
 2595SOL    HW210378   0.985   1.765   4.102  0.8360  1.0320 -0.3638
 2595SOL    HW310379   0.937   1.863   3.998 -1.0675  0.3249 -0.1564
 2595SOL    MW410380   0.949   1.841   4.081 -0.1260  0.6230 -0.2155
 2596SOL     OW10381   2.450   3.131   4.157 -0.6323  0.2645  0.0370
 2596SOL    HW210382   2.376   3.167   4.207  0.2076  2.1454 -0.0364
 2596SOL    HW310383   2.528   3.165   4.200  0.1753 -0.5090 -0.7765
 2596SOL    MW410384   2.450   3.140   4.169 -0.4150  0.4106 -0.0800
 2597SOL     OW10385   2.849   2.265   4.121  0.0669 -0.0088  0.1942
 2597SOL    HW210386   2.812   2.177   4.107  0.1072 -0.0882  0.5797
 2597SOL    HW310387   2.788   2.307   4.182  0.4770 -0.0496  0.6336
 2597SOL    MW410388   2.836   2.259   4.128  0.1263 -0.0247  0.3031
 2598SOL     OW10389   0.448   2.138   4.690 -0.0634 -0.1392  0.1072
 2598SOL    HW210390   0.453   2.100   4.777  0.9428 -0.9235 -0.2917
 2598SOL    HW310391   0.358   2.122   4.661  0.4326 -2.5127 -0.1930
 2598SOL    MW410392   0.437   2.131   4.698  0.1348 -0.5558  0.0150
 2599SOL     OW10393   1.363   1.947   4.534  0.1298 -0.3250  0.5774
 2599SOL    HW210394   1.392   1.858   4.556  0.0481 -0.8747 -1.4306
 2599SOL    HW310395   1.444   1.999   4.534  0.1984 -0.4262  1.6064
 2599SOL    MW410396   1.378   1.942   4.537  0.1281 -0.4109  0.4482
 2600SOL     OW10397   2.749   3.985   4.557 -0.1258  0.3943 -0.5846
 2600SOL    HW210398   2.841   3.998   4.535 -0.2976  0.3315 -1.3569
 2600SOL    HW310399   2.703   3.987   4.473 -0.5614 -1.8640 -0.4379
 2600SOL    MW410400   2.755   3.987   4.543 -0.2060  0.0881 -0.6671
 2601SOL     OW10401   3.173   4.231   4.140 -0.0789 -0.2718 -0.0085
 2601SOL    HW210402   3.240   4.271   4.194 -0.5375  0.3125  0.1278
 2601SOL    HW310403   3.090   4.254   4.183 -0.3867 -0.6570 -0.3902
 2601SOL    MW410404   3.171   4.239   4.153 -0.1800 -0.2456 -0.0409
 2602SOL     OW10405   1.803   4.265   4.160  0.0361  0.5244 -0.1779
 2602SOL    HW210406   1.814   4.252   4.066  0.6252  1.1728 -0.2029
 2602SOL    HW310407   1.887   4.299   4.189 -0.0335 -0.0129  0.6450
 2602SOL    MW410408   1.815   4.268   4.151  0.1046  0.5390 -0.0726
 2603SOL     OW10409   2.949   4.347   4.251  0.3668 -0.0181  0.1112
 2603SOL    HW210410   2.930   4.419   4.191  0.7937  0.5296  0.6268
 2603SOL    HW310411   2.871   4.292   4.248 -0.1468  0.6979  0.0400
 2603SOL    MW410412   2.936   4.349   4.243  0.3554  0.1486  0.1699
 2604SOL     OW10413   3.484   0.739   4.515  0.0932  0.5425 -0.7073
 2604SOL    HW210414   3.538   0.798   4.464 -1.0205  0.4240 -2.0641
 2604SOL    HW310415   3.394   0.759   4.488 -0.3762 -0.9335 -0.3165
 2604SOL    MW410416   3.479   0.749   4.505 -0.1157  0.3321 -0.8348
 2605SOL     OW10417   2.671   0.360   4.633  0.2296 -0.3110  0.0888
 2605SOL    HW210418   2.735   0.332   4.700 -0.7694 -1.1056  0.7264
 2605SOL    HW310419   2.716   0.343   4.550  1.8513  1.5520  0.5362
 2605SOL    MW410420   2.686   0.354   4.631  0.3117 -0.1700  0.2320
 2606SOL     OW10421   1.124   4.170   4.502 -0.1005 -0.1271  0.6932
 2606SOL    HW210422   1.195   4.109   4.521  2.2315  2.1073 -0.5899
 2606SOL    HW310423   1.156   4.222   4.429 -2.8432  1.3624  0.4816
 2606SOL    MW410424   1.137   4.168   4.495 -0.1547  0.3642  0.4960
 2607SOL     OW10425   3.402   3.259   4.700  0.1462  0.2253 -0.0001
 2607SOL    HW210426   3.426   3.351   4.714  0.1872  0.1032  0.7842
 2607SOL    HW310427   3.478   3.221   4.656  0.2816  0.4813  0.0077
 2607SOL    MW410428   3.415   3.266   4.696  0.1695  0.2430  0.1044
 2608SOL     OW10429   3.360   2.242   4.149 -0.1950 -0.0688 -0.0870
 2608SOL    HW210430   3.374   2.254   4.055 -0.3536 -1.0196 -0.2364
 2608SOL    HW310431   3.273   2.280   4.165 -0.7649 -1.1624 -0.5831
 2608SOL    MW410432   3.350   2.249   4.139 -0.2911 -0.3385 -0.1722
 2609SOL     OW10433   1.723   3.401   4.759 -0.5803 -0.1570  0.3654
 2609SOL    HW210434   1.804   3.366   4.795 -0.5848 -1.1808 -0.5709
 2609SOL    HW310435   1.749   3.480   4.712 -0.0425 -0.7455 -0.3390
 2609SOL    MW410436   1.737   3.407   4.757 -0.5099 -0.3697  0.1490
 2610SOL     OW10437   3.584   2.249   4.641  0.1633 -0.0199 -0.3075
 2610SOL    HW210438   3.629   2.324   4.680  0.3502  0.5262 -1.5382
 2610SOL    HW310439   3.650   2.180   4.639  0.1543 -0.0538  0.3162
 2610SOL    MW410440   3.599   2.250   4.646  0.1868  0.0477 -0.3876
 2611SOL     OW10441   1.124   0.506   4.248 -0.1690 -0.3386  0.4614
 2611SOL    HW210442   1.051   0.445   4.235 -0.9530  0.7076 -0.1346
 2611SOL    HW310443   1.131   0.515   4.343 -0.4564 -0.8777  0.5326
 2611SOL    MW410444   1.115   0.499   4.259 -0.3103 -0.2717  0.3922
 2612SOL     OW10445   4.002   2.441   4.546 -0.2252  0.2197  0.0330
 2612SOL    HW210446   3.974   2.472   4.460 -1.7694 -0.3247  0.3290
 2612SOL    HW310447   4.082   2.491   4.565 -0.7887  1.5199 -0.9947
 2612SOL    MW410448   4.009   2.452   4.537 -0.5033  0.3195 -0.0635
 2613SOL     OW10449   4.115   0.090   4.286  0.1372  0.2243 -0.0327
 2613SOL    HW210450   4.130   0.116   4.377  0.2490  0.2989 -0.0725
 2613SOL    HW310451   4.029   0.047   4.287 -1.0952  2.6250 -0.3701
 2613SOL    MW410452   4.106   0.087   4.298 -0.0106  0.5509 -0.0825
 2614SOL     OW10453   0.250   0.775   4.158  0.0231 -0.0143 -0.3248
 2614SOL    HW210454   0.176   0.805   4.210 -0.0764  0.5320 -0.7799
 2614SOL    HW310455   0.249   0.680   4.169  0.7056  0.1759  1.5899
 2614SOL    MW410456   0.240   0.766   4.166  0.1000  0.0828 -0.1322
 2615SOL     OW10457   2.899   1.877   4.308 -0.0409 -0.0054  0.2410
 2615SOL    HW210458   2.940   1.923   4.381 -1.1820  1.1091  0.2040
 2615SOL    HW310459   2.967   1.871   4.241  1.3394 -2.0090  1.7878
 2615SOL    MW410460   2.913   1.883   4.309 -0.0093 -0.1227  0.4402
 2616SOL     OW10461   4.023   3.180   4.305  0.0243 -0.1002  0.4272
 2616SOL    HW210462   4.041   3.265   4.265 -0.1731  0.2283  1.0318
 2616SOL    HW310463   3.943   3.150   4.261 -0.8909  0.8211  1.4181
 2616SOL    MW410464   4.015   3.187   4.294 -0.1225  0.0647  0.6377
 2617SOL     OW10465   0.026   1.155   4.167 -0.1032  0.2877  0.3388
 2617SOL    HW210466   0.019   1.155   4.071  0.2862  1.6039  0.2956
 2617SOL    HW310467   0.006   1.065   4.193 -0.6207  0.0170 -0.9514
 2617SOL    MW410468   0.022   1.144   4.158 -0.1201  0.4257  0.1629
 2618SOL     OW10469   1.256   2.334   4.466 -0.0155 -0.1300  0.3529
 2618SOL    HW210470   1.210   2.253   4.446  0.5323 -0.2176 -0.5802
 2618SOL    HW310471   1.342   2.306   4.499  0.8547  0.0740 -1.6681
 2618SOL    MW410472   1.262   2.320   4.468  0.1716 -0.1146 -0.0369
 2619SOL     OW10473   2.764   2.016   4.613  0.3794 -0.0795  0.0684
 2619SOL    HW210474   2.846   2.015   4.564  0.9396 -0.1999  0.9878
 2619SOL    HW310475   2.754   1.926   4.645  0.1901  0.0789  0.4577
 2619SOL    MW410476   2.773   2.004   4.611  0.4283 -0.0745  0.2410
 2620SOL     OW10477   2.558   1.310   4.544  0.1516  0.0059  0.3108
 2620SOL    HW210478   2.555   1.303   4.448 -0.6466 -0.2294  0.3550
 2620SOL    HW310479   2.601   1.229   4.572 -2.1061 -1.2231  0.3223
 2620SOL    MW410480   2.564   1.298   4.535 -0.2516 -0.1873  0.3181
 2621SOL     OW10481   0.265   4.380   4.267 -0.3919  0.5520  0.0088
 2621SOL    HW210482   0.339   4.324   4.242  0.2056  1.0582  0.6283
 2621SOL    HW310483   0.192   4.349   4.213  0.5798  0.8692 -1.4985
 2621SOL    MW410484   0.265   4.368   4.257 -0.1849  0.6606 -0.1083
 2622SOL     OW10485   0.257   0.477   4.237 -0.0593  0.5441  0.0520
 2622SOL    HW210486   0.185   0.429   4.196  0.6038 -0.3151 -0.1249
 2622SOL    HW310487   0.336   0.435   4.202  0.5215  1.2538  0.5091
 2622SOL    MW410488   0.258   0.465   4.227  0.1048  0.5243  0.0890
 2623SOL     OW10489   4.051   1.163   4.209 -0.0107 -0.0782 -0.0519
 2623SOL    HW210490   4.131   1.182   4.258 -0.3233 -0.1090  0.4762
 2623SOL    HW310491   3.982   1.207   4.258 -0.2496  0.3636 -0.7845
 2623SOL    MW410492   4.053   1.171   4.222 -0.0834 -0.0239 -0.0788
 2624SOL     OW10493   3.818   0.729   4.200 -0.1819 -0.5586  0.0324
 2624SOL    HW210494   3.814   0.727   4.105  0.2178 -2.2737  0.0352
 2624SOL    HW310495   3.899   0.776   4.219 -0.1345 -0.4276 -0.4829
 2624SOL    MW410496   3.828   0.735   4.190 -0.1229 -0.7676 -0.0352
 2625SOL     OW10497   4.478   2.582   4.694 -0.0424  0.1137 -0.2915
 2625SOL    HW210498   4.491   2.542   4.780  0.5441 -0.1182 -0.4885
 2625SOL    HW310499   4.527   2.527   4.633 -0.5759  0.1938 -0.7990
 2625SOL    MW410500   4.486   2.570   4.697 -0.0354  0.0937 -0.3845
 2626SOL     OW10501   3.863   0.481   4.310 -0.1289  0.0999  0.7161
 2626SOL    HW210502   3.855   0.562   4.259  2.4240 -0.2241 -0.2718
 2626SOL    HW310503   3.797   0.423   4.272  0.2395  0.6115 -0.7350
 2626SOL    MW410504   3.853   0.484   4.298  0.2566  0.1246  0.3943
 2627SOL     OW10505   4.365   0.055   4.675  0.3143  0.1038  0.0437
 2627SOL    HW210506   4.313   0.104   4.610  0.5484 -0.9178 -0.9282
 2627SOL    HW310507   4.448   0.037   4.631  1.4507  1.5350  1.5174
 2627SOL    MW410508   4.369   0.059   4.660  0.4951  0.1578  0.1099
 2628SOL     OW10509   0.698   4.380   4.494  0.1900  0.1037 -0.2541
 2628SOL    HW210510   0.791   4.390   4.514  0.3267  0.0809 -0.8552
 2628SOL    HW310511   0.683   4.285   4.496 -0.4316  0.2313  2.4951
 2628SOL    MW410512   0.708   4.369   4.497  0.1261  0.1175  0.0293
 2629SOL     OW10513   2.679   2.431   4.251  0.3224 -0.5417  0.3106
 2629SOL    HW210514   2.589   2.414   4.223 -0.1189  0.8718  0.8462
 2629SOL    HW310515   2.673   2.442   4.346  0.6223  2.3146  0.0192
 2629SOL    MW410516   2.667   2.430   4.260  0.3038  0.0217  0.3428
 2630SOL     OW10517   4.087   2.195   4.675  0.1790 -0.4544  0.2630
 2630SOL    HW210518   4.059   2.279   4.640 -0.4658 -0.8099 -0.0976
 2630SOL    HW310519   4.072   2.203   4.770  1.4457  0.3244  0.4049
 2630SOL    MW410520   4.081   2.207   4.683  0.2611 -0.3985  0.2342
 2631SOL     OW10521   2.738   0.421   4.127 -0.1011  0.2062 -0.0437
 2631SOL    HW210522   2.651   0.442   4.163  0.3042  1.4550  0.2327
 2631SOL    HW310523   2.720   0.389   4.039 -0.8433  0.6006 -0.0443
 2631SOL    MW410524   2.724   0.420   4.120 -0.1455  0.4230 -0.0073
 2632SOL     OW10525   4.321   0.452   4.244 -0.3710  0.1965  0.0424
 2632SOL    HW210526   4.305   0.460   4.338 -1.1230  1.3835 -0.1823
 2632SOL    HW310527   4.237   0.423   4.208 -0.3633  0.7085 -0.3897
 2632SOL    MW410528   4.308   0.449   4.252 -0.4692  0.4207 -0.0443
 2633SOL     OW10529   0.018   2.640   4.220 -0.7368 -0.0359 -0.7520
 2633SOL    HW210530   0.092   2.683   4.262 -0.9225 -0.5003  0.0558
 2633SOL    HW310531   0.028   2.547   4.241 -1.5682 -0.0978 -0.6009
 2633SOL    MW410532   0.029   2.633   4.228 -0.8710 -0.1054 -0.6255
 2634SOL     OW10533   3.458   2.353   4.411  0.1291 -0.0246 -0.4427
 2634SOL    HW210534   3.433   2.288   4.345 -2.0205  0.1874  0.1299
 2634SOL    HW310535   3.495   2.301   4.482 -1.3279 -0.6311 -0.1028
 2634SOL    MW410536   3.459   2.337   4.412 -0.3468 -0.0766 -0.3223
 2635SOL     OW10537   0.277   4.607   4.105 -0.1646  0.3319  0.0066
 2635SOL    HW210538   0.284   4.524   4.153  0.1353  0.2772 -0.1313
 2635SOL    HW310539   0.197   4.647   4.139 -1.0527 -0.6420 -0.9205
 2635SOL    MW410540   0.268   4.601   4.116 -0.2422  0.1962 -0.1339
 2636SOL     OW10541   3.811   3.083   4.173 -0.2628 -0.3756 -0.2362
 2636SOL    HW210542   3.813   2.988   4.188  0.1042 -0.4290 -0.6102
 2636SOL    HW310543   3.807   3.092   4.078 -1.1601 -0.0242 -0.1755
 2636SOL    MW410544   3.811   3.071   4.163 -0.3328 -0.3363 -0.2775
 2637SOL     OW10545   0.446   0.140   4.532 -0.4339 -0.4418  0.1050
 2637SOL    HW210546   0.438   0.125   4.438  0.3965  0.7749 -0.1689
 2637SOL    HW310547   0.465   0.053   4.569  2.7605 -0.3821 -1.2784
 2637SOL    MW410548   0.447   0.127   4.525  0.0971 -0.2734 -0.1137
 2638SOL     OW10549   1.888   2.091   4.525  0.6764  0.1809  0.5675
 2638SOL    HW210550   1.884   2.015   4.584  1.9471  0.1496  0.6191
 2638SOL    HW310551   1.931   2.159   4.576  2.4714 -0.0783 -0.5529
 2638SOL    MW410552   1.893   2.090   4.540  1.0809  0.1426  0.4265
 2639SOL     OW10553   0.447   3.937   4.517  0.1348 -0.3649 -0.2901
 2639SOL    HW210554   0.474   3.848   4.542 -0.5418 -0.2964  0.7020
 2639SOL    HW310555   0.359   3.947   4.555  0.0015  0.5497 -0.8259
 2639SOL    MW410556   0.439   3.926   4.525  0.0280 -0.2352 -0.2299
 2640SOL     OW10557   1.225   2.985   4.560  0.1556  0.9662 -0.1387
 2640SOL    HW210558   1.301   3.042   4.552  0.4648  0.7399  1.0835
 2640SOL    HW310559   1.151   3.046   4.568  0.5220  1.2193  1.4964
 2640SOL    MW410560   1.225   3.001   4.560  0.2447  0.9697  0.2383
 2641SOL     OW10561   3.700   2.697   4.561 -0.0666 -0.1871 -0.3017
 2641SOL    HW210562   3.773   2.759   4.554  0.8092 -1.2437 -0.6938
 2641SOL    HW310563   3.624   2.752   4.579  0.5279  1.0999 -1.5680
 2641SOL    MW410564   3.700   2.713   4.562  0.1274 -0.1567 -0.5205
 2642SOL     OW10565   2.038   4.647   4.156  0.1207  0.3015 -0.6898
 2642SOL    HW210566   2.032   4.556   4.183  1.1520  0.5103  0.3062
 2642SOL    HW310567   2.007   4.648   4.066  0.8562 -1.1688 -0.9712
 2642SOL    MW410568   2.033   4.635   4.148  0.3538  0.1351 -0.5955
 2643SOL     OW10569   1.046   3.735   4.473 -0.0669 -0.1263 -0.1231
 2643SOL    HW210570   1.134   3.740   4.511 -0.6709  0.8946  1.1707
 2643SOL    HW310571   1.057   3.683   4.394  1.5520 -0.7155  0.4792
 2643SOL    MW410572   1.059   3.729   4.468  0.0670 -0.0693  0.1271
 2644SOL     OW10573   0.680   4.115   4.477 -0.4330 -0.0537 -0.1311
 2644SOL    HW210574   0.603   4.060   4.493  0.4184 -1.1776  0.1866
 2644SOL    HW310575   0.754   4.054   4.483  0.5011  1.0802 -0.0768
 2644SOL    MW410576   0.679   4.099   4.480 -0.1974 -0.0524 -0.0820
 2645SOL     OW10577   2.466   2.311   4.608 -0.0343  0.0031 -0.3401
 2645SOL    HW210578   2.486   2.234   4.555  0.5882 -0.1157  0.0550
 2645SOL    HW310579   2.541   2.369   4.595 -1.0812  1.0940 -1.6280
 2645SOL    MW410580   2.479   2.308   4.599 -0.0903  0.1314 -0.4579
 2646SOL     OW10581   3.381   4.495   4.486 -0.1279 -0.0824 -0.1052
 2646SOL    HW210582   3.293   4.515   4.516 -0.7137 -0.8623 -1.2243
 2646SOL    HW310583   3.433   4.572   4.507 -0.5803 -0.4381  2.4750
 2646SOL    MW410584   3.376   4.508   4.493 -0.2648 -0.2322  0.0876
 2647SOL     OW10585   2.320   2.744   4.512  0.1751 -0.4080 -0.5446
 2647SOL    HW210586   2.359   2.766   4.427  2.0722 -3.7519 -0.6067
 2647SOL    HW310587   2.379   2.784   4.576  0.2908 -0.2364 -0.7574
 2647SOL    MW410588   2.333   2.752   4.509  0.4407 -0.8265 -0.5809
 2648SOL     OW10589   0.487   0.345   4.166  0.4734 -0.3605  0.1755
 2648SOL    HW210590   0.497   0.329   4.072  0.0662 -1.4618  0.3136
 2648SOL    HW310591   0.476   0.258   4.204 -2.7201  0.2780  0.8583
 2648SOL    MW410592   0.487   0.332   4.159 -0.0017 -0.4216  0.2838
 2649SOL     OW10593   1.153   0.767   4.153  0.4757  0.6131  0.1366
 2649SOL    HW210594   1.127   0.682   4.187  0.9010  0.5995  0.4378
 2649SOL    HW310595   1.134   0.763   4.060  2.8078 -0.7152 -0.3107
 2649SOL    MW410596   1.147   0.755   4.145  0.8395  0.4360  0.1173
 2650SOL     OW10597   4.217   1.984   4.520 -0.1017  0.1502  0.1801
 2650SOL    HW210598   4.190   2.071   4.549  1.0405  1.3045 -2.0884
 2650SOL    HW310599   4.298   1.967   4.569  0.6434  1.1489 -0.6831
 2650SOL    MW410600   4.224   1.993   4.530  0.1473  0.4343 -0.2331
 2651SOL     OW10601   1.116   4.658   4.622  0.6365 -0.3323 -0.3588
 2651SOL    HW210602   1.048   4.717   4.589  0.9552  1.6329  2.3675
 2651SOL    HW310603   1.068   4.582   4.655 -0.0001 -0.1917 -0.9399
 2651SOL    MW410604   1.100   4.656   4.622  0.5945 -0.0545 -0.0757
 2652SOL     OW10605   2.271   0.866   4.229 -0.0743 -0.2836  0.3015
 2652SOL    HW210606   2.252   0.861   4.322  0.4706  0.0807  0.4295
 2652SOL    HW310607   2.349   0.812   4.217 -0.6924 -1.1081 -0.1003
 2652SOL    MW410608   2.279   0.858   4.239 -0.0840 -0.3443  0.2654
 2653SOL     OW10609   0.570   1.682   4.521 -0.4177  0.4838 -0.1508
 2653SOL    HW210610   0.537   1.670   4.432  2.0583 -0.7187 -0.9518
 2653SOL    HW310611   0.581   1.777   4.529 -0.5626  0.5974 -1.1595
 2653SOL    MW410612   0.567   1.693   4.510 -0.1101  0.3402 -0.3896
 2654SOL     OW10613   2.686   3.136   4.549 -0.2679  0.1003 -0.4855
 2654SOL    HW210614   2.696   3.147   4.454 -1.0134  1.5291 -0.4030
 2654SOL    HW310615   2.691   3.225   4.584 -1.2244 -0.3128  0.7040
 2654SOL    MW410616   2.688   3.149   4.541 -0.4924  0.2343 -0.3176
 2655SOL     OW10617   3.837   2.293   4.193  0.6247 -0.0116  0.0118
 2655SOL    HW210618   3.778   2.352   4.241  1.8081  0.8987  0.3765
 2655SOL    HW310619   3.814   2.307   4.101  1.0151  1.1657  0.0861
 2655SOL    MW410620   3.826   2.303   4.187  0.8324  0.2638  0.0697
 2656SOL     OW10621   3.345   3.575   4.277  0.2102 -0.1963  0.1956
 2656SOL    HW210622   3.268   3.534   4.239 -0.0304  0.5693 -0.1537
 2656SOL    HW310623   3.332   3.569   4.371  0.4721 -1.4693  0.1582
 2656SOL    MW410624   3.333   3.569   4.284  0.2130 -0.2632  0.1446
 2657SOL     OW10625   0.678   3.886   4.134 -0.0206  0.2514  0.3447
 2657SOL    HW210626   0.696   3.796   4.163  0.8241 -0.4033 -2.0901
 2657SOL    HW310627   0.590   3.904   4.165  0.0316 -1.2092  1.3867
 2657SOL    MW410628   0.669   3.876   4.142  0.0978 -0.0277  0.1610
 2658SOL     OW10629   3.342   1.973   4.202  0.0458 -0.1882  0.5039
 2658SOL    HW210630   3.432   1.940   4.193 -0.5752 -1.5000 -1.2219
 2658SOL    HW310631   3.344   2.058   4.159  0.6367  0.1277  1.1395
 2658SOL    MW410632   3.354   1.980   4.195  0.0418 -0.3196  0.3600
 2659SOL     OW10633   0.692   0.509   4.273  0.0184 -0.3146  0.1184
 2659SOL    HW210634   0.676   0.528   4.366 -1.6142  1.6915 -0.5459
 2659SOL    HW310635   0.611   0.469   4.243 -0.1344  0.7313 -0.8781
 2659SOL    MW410636   0.679   0.506   4.281 -0.2171  0.0881 -0.1007
 2660SOL     OW10637   1.586   0.758   4.205 -0.3286  0.2784 -0.0972
 2660SOL    HW210638   1.679   0.768   4.223  0.0251 -2.6088 -0.1264
 2660SOL    HW310639   1.577   0.775   4.111  0.1675  0.4403 -0.1142
 2660SOL    MW410640   1.597   0.762   4.195 -0.2165 -0.0812 -0.1033
 2661SOL     OW10641   2.758   0.294   4.374  0.2525  0.8098 -0.0038
 2661SOL    HW210642   2.752   0.340   4.291  0.7106 -0.6296 -0.8457
 2661SOL    HW310643   2.852   0.283   4.389  0.1350 -0.4326 -0.1373
 2661SOL    MW410644   2.770   0.299   4.365  0.2974  0.4560 -0.1325
 2662SOL     OW10645   0.570   2.407   4.688  0.7373  0.3037  0.0025
 2662SOL    HW210646   0.526   2.325   4.711  0.3676  1.1689  2.5498
 2662SOL    HW310647   0.629   2.383   4.617 -0.2652 -1.9137 -0.1366
 2662SOL    MW410648   0.572   2.393   4.682  0.5563  0.1253  0.3202
 2663SOL     OW10649   1.030   1.575   4.107  0.6984 -0.1567 -0.2324
 2663SOL    HW210650   0.935   1.561   4.111  0.8923 -1.8789 -1.3634
 2663SOL    HW310651   1.066   1.515   4.172  1.1532 -0.9749 -1.2381
 2663SOL    MW410652   1.022   1.565   4.116  0.7840 -0.4918 -0.5143
 2664SOL     OW10653   1.584   4.409   4.239 -1.0138 -0.1038  0.3993
 2664SOL    HW210654   1.504   4.369   4.204 -0.1657 -0.7044 -0.8968
 2664SOL    HW310655   1.655   4.364   4.193  0.0074  2.0962 -0.2555
 2664SOL    MW410656   1.583   4.398   4.228 -0.7672  0.1072  0.1419
 2665SOL     OW10657   0.913   4.000   4.215  0.1136  0.1188  0.8266
 2665SOL    HW210658   0.914   4.002   4.310  0.5475 -0.3478  0.8331
 2665SOL    HW310659   0.832   3.955   4.192  0.0083  0.2333  0.9729
 2665SOL    MW410660   0.903   3.995   4.224  0.1570  0.0723  0.8468
 2666SOL     OW10661   0.048   1.907   4.178  0.2524 -0.0119  0.3526
 2666SOL    HW210662   0.024   1.821   4.213  0.9035 -1.1584 -1.9424
 2666SOL    HW310663  -0.032   1.959   4.187 -1.5826 -2.2312 -2.3722
 2666SOL    MW410664   0.034   1.903   4.184  0.0962 -0.4560 -0.3097
 2667SOL     OW10665   0.231   3.080   4.230  0.5321 -0.1872  0.0192
 2667SOL    HW210666   0.301   3.143   4.248 -0.1370  0.5003  0.2796
 2667SOL    HW310667   0.156   3.113   4.281  0.2306 -1.3030  0.3042
 2667SOL    MW410668   0.230   3.093   4.239  0.4040 -0.2437  0.0912
 2668SOL     OW10669   4.486   1.003   4.529  0.2726  0.4369  0.0019
 2668SOL    HW210670   4.464   1.091   4.559 -0.3364  0.2028  0.2484
 2668SOL    HW310671   4.429   0.945   4.580 -1.0166  0.0601 -1.8203
 2668SOL    MW410672   4.476   1.007   4.540  0.0222  0.3563 -0.2060
 2669SOL     OW10673   2.096   3.052   4.742  0.5909  0.0267 -0.4618
 2669SOL    HW210674   2.072   3.104   4.818 -0.7612  1.7588 -2.0140
 2669SOL    HW310675   2.191   3.058   4.737  0.4606  2.3115 -0.5579
 2669SOL    MW410676   2.105   3.059   4.751  0.3953  0.5567 -0.6793
 2670SOL     OW10677   4.295   1.241   4.312 -0.1874  0.3638 -0.0876
 2670SOL    HW210678   4.361   1.189   4.266 -0.6803 -0.4125  0.0633
 2670SOL    HW310679   4.332   1.256   4.399  0.1566  0.6551 -0.2859
 2670SOL    MW410680   4.309   1.236   4.317 -0.2071  0.2998 -0.0938
 2671SOL     OW10681   1.783   0.841   4.699  0.2762 -0.4716 -0.1249
 2671SOL    HW210682   1.692   0.866   4.686  0.2237 -0.6163 -0.0483
 2671SOL    HW310683   1.814   0.898   4.769  0.9738  1.2648 -1.8156
 2671SOL    MW410684   1.775   0.852   4.707  0.3613 -0.2616 -0.3379
 2672SOL     OW10685   1.844   4.069   4.985 -0.2298  0.0861 -0.2690
 2672SOL    HW210686   1.934   4.096   5.003  0.4581 -1.9443 -0.5071
 2672SOL    HW310687   1.804   4.143   4.939  0.7664  1.7169  1.4385
 2672SOL    MW410688   1.850   4.082   4.982 -0.0076  0.0334 -0.0751
 2673SOL     OW10689   2.500   4.399   4.259  0.4554  0.1285  0.1948
 2673SOL    HW210690   2.506   4.482   4.213 -1.0883 -0.1837 -0.6009
 2673SOL    HW310691   2.473   4.422   4.348  0.0417  0.4701 -0.0208
 2673SOL    MW410692   2.497   4.413   4.264  0.1971  0.1324  0.0614
 2674SOL     OW10693   2.036   3.907   4.171  0.2382 -0.4135 -0.1234
 2674SOL    HW210694   1.961   3.956   4.203  0.3720 -0.1324 -0.2401
 2674SOL    HW310695   2.023   3.903   4.076 -1.4233 -3.3031  0.1445
 2674SOL    MW410696   2.024   3.913   4.162  0.0367 -0.7577 -0.1035
 2675SOL     OW10697   1.977   4.275   4.518 -0.3426 -0.0612 -0.1362
 2675SOL    HW210698   1.925   4.196   4.533  0.0562 -0.1873  0.6279
 2675SOL    HW310699   1.920   4.346   4.547 -0.4619 -0.1269 -0.2124
 2675SOL    MW410700   1.963   4.274   4.524 -0.3057 -0.0865 -0.0454
 2676SOL     OW10701   0.388   2.780   4.554 -0.0095 -0.1724  0.5065
 2676SOL    HW210702   0.321   2.802   4.489 -1.3041 -1.0703  1.5190
 2676SOL    HW310703   0.406   2.688   4.539  0.6986 -0.0392  0.5221
 2676SOL    MW410704   0.381   2.771   4.543 -0.0869 -0.2733  0.6421
 2677SOL     OW10705   2.944   4.645   4.134  0.3325  0.1422  0.3192
 2677SOL    HW210706   3.022   4.697   4.156  1.6821 -1.5199 -0.4006
 2677SOL    HW310707   2.882   4.665   4.204  1.2983  1.7115  0.7585
 2677SOL    MW410708   2.946   4.654   4.146  0.6380  0.1300  0.2822
 2678SOL     OW10709   1.447   0.257   4.625  0.4303  0.3556 -0.6302
 2678SOL    HW210710   1.494   0.330   4.585 -1.6835  1.4379 -1.2082
 2678SOL    HW310711   1.373   0.298   4.670  0.8494 -1.1667  1.5140
 2678SOL    MW410712   1.443   0.272   4.626  0.2067  0.2976 -0.4235
 2679SOL     OW10713   1.511   3.378   4.578  0.3547  0.6020 -0.0793
 2679SOL    HW210714   1.433   3.365   4.631  0.1897 -0.4827 -0.5680
 2679SOL    HW310715   1.583   3.377   4.640  0.1305 -0.2706  0.1690
 2679SOL    MW410716   1.510   3.376   4.593  0.3033  0.3438 -0.1110
 2680SOL     OW10717   3.108   3.171   4.226 -0.4519 -0.5905 -0.0621
 2680SOL    HW210718   3.123   3.172   4.320  0.0118  0.4077 -0.1405
 2680SOL    HW310719   3.193   3.151   4.188 -0.0115  1.6971 -0.3656
 2680SOL    MW410720   3.121   3.169   4.233 -0.3326 -0.1570 -0.1125
 2681SOL     OW10721   2.667   4.342   4.573  0.0112  0.0938  0.1956
 2681SOL    HW210722   2.761   4.331   4.559  0.1420  1.4687 -0.1080
 2681SOL    HW310723   2.637   4.257   4.603  1.2052 -0.6024 -0.5383
 2681SOL    MW410724   2.676   4.329   4.575  0.1860  0.1834  0.0587
 2682SOL     OW10725   2.044   0.503   4.306 -0.2482  0.1996  0.8064
 2682SOL    HW210726   1.965   0.466   4.266  0.0253  0.9485 -0.4564
 2682SOL    HW310727   2.116   0.453   4.269 -0.0834 -0.1315  1.5583
 2682SOL    MW410728   2.043   0.492   4.296 -0.1904  0.2547  0.7390
 2683SOL     OW10729   0.906   0.103   4.266 -0.4196  0.0348  0.1360
 2683SOL    HW210730   0.906   0.131   4.358  0.1304 -1.2288  0.5325
 2683SOL    HW310731   0.992   0.063   4.253 -0.6805 -0.2420 -0.7946
 2683SOL    MW410732   0.918   0.101   4.276 -0.3815 -0.1685  0.0655
 2684SOL     OW10733   4.049   0.396   3.894 -0.3127  0.1224 -0.0916
 2684SOL    HW210734   4.070   0.387   3.987  0.7805 -0.7914 -0.4197
 2684SOL    HW310735   4.042   0.306   3.862  0.8155  0.4220 -1.2249
 2684SOL    MW410736   4.051   0.383   3.902 -0.0196  0.0414 -0.2844
 2685SOL     OW10737   3.931   2.852   4.532  0.1284 -0.3005  0.2175
 2685SOL    HW210738   3.997   2.798   4.576  0.5480 -0.2215 -0.3119
 2685SOL    HW310739   3.940   2.938   4.572 -0.9124 -0.7438  1.4509
 2685SOL    MW410740   3.941   2.856   4.543  0.0464 -0.3486  0.3104
 2686SOL     OW10741   0.243   1.286   4.284 -0.3501  0.1721  0.3717
 2686SOL    HW210742   0.319   1.237   4.252  0.2153 -1.3415  3.8342
 2686SOL    HW310743   0.170   1.253   4.232  0.8000 -0.7695 -0.6849
 2686SOL    MW410744   0.243   1.275   4.273 -0.1238 -0.1519  0.6891
 2687SOL     OW10745   0.717   1.279   4.271  0.3420  0.1066  0.0614
 2687SOL    HW210746   0.643   1.220   4.254  1.6240 -1.5754  0.1463
 2687SOL    HW310747   0.717   1.290   4.366  1.9556 -2.3427  0.4106
 2687SOL    MW410748   0.707   1.272   4.281  0.7241 -0.4385  0.1187
 2688SOL     OW10749   4.474   3.172   4.332  0.1801  0.0764 -0.1483
 2688SOL    HW210750   4.412   3.106   4.300 -0.2832  0.5128 -0.1664
 2688SOL    HW310751   4.464   3.245   4.271  0.2300  0.4066  0.2406
 2688SOL    MW410752   4.464   3.173   4.320  0.1256  0.1776 -0.0994
 2689SOL     OW10753   0.433   3.533   4.192  0.6305  0.0898  0.0304
 2689SOL    HW210754   0.343   3.557   4.218  1.1044  1.1951  0.6779
 2689SOL    HW310755   0.425   3.509   4.100 -0.4514 -0.4320  0.2457
 2689SOL    MW410756   0.420   3.533   4.183  0.5503  0.1668  0.1442
 2690SOL     OW10757   1.862   0.076   4.530  0.0820 -0.3487 -0.0661
 2690SOL    HW210758   1.945   0.109   4.564  0.6308 -0.9015 -0.8447
 2690SOL    HW310759   1.795   0.120   4.582  0.8826 -0.4733  1.0753
 2690SOL    MW410760   1.864   0.087   4.541  0.2601 -0.4381 -0.0183
 2691SOL     OW10761   2.265   2.460   4.520  0.1155  0.1117  0.4886
 2691SOL    HW210762   2.306   2.545   4.536  0.3248  0.4082 -1.5905
 2691SOL    HW310763   2.326   2.396   4.558  1.1681  0.7308 -0.1556
 2691SOL    MW410764   2.278   2.463   4.527  0.2820  0.2325  0.1293
 2692SOL     OW10765   1.358   1.844   4.103  0.1117 -0.1653  0.0844
 2692SOL    HW210766   1.350   1.766   4.158  1.6880  0.4606  1.2528
 2692SOL    HW310767   1.436   1.889   4.137 -0.1290  1.3307 -1.2967
 2692SOL    MW410768   1.367   1.840   4.115  0.2879  0.1147  0.0563
 2693SOL     OW10769   3.574   3.199   4.266 -0.0457  0.2593 -0.3824
 2693SOL    HW210770   3.505   3.148   4.224  1.6956 -3.2421  0.8326
 2693SOL    HW310771   3.655   3.170   4.223  1.1379  0.7953  1.4133
 2693SOL    MW410772   3.576   3.188   4.255  0.3402 -0.1319  0.0149
 2694SOL     OW10773   2.009   2.811   4.279 -0.2247  0.1375  0.2811
 2694SOL    HW210774   2.012   2.899   4.243  0.1805 -0.0190 -0.0696
 2694SOL    HW310775   2.026   2.822   4.373 -0.1819  0.4276  0.2386
 2694SOL    MW410776   2.012   2.824   4.287 -0.1656  0.1551  0.2292
 2695SOL     OW10777   0.183   3.925   4.623  0.5491 -0.5288 -0.0506
 2695SOL    HW210778   0.168   3.927   4.717 -1.7604 -1.1279 -0.3846
 2695SOL    HW310779   0.114   3.979   4.586  0.7986 -1.1477 -1.4762
 2695SOL    MW410780   0.172   3.932   4.630  0.2773 -0.6895 -0.2828
 2696SOL     OW10781   1.459   3.109   4.500  0.1080 -0.6566  0.1327
 2696SOL    HW210782   1.438   3.121   4.407 -0.3257 -0.2657  0.2800
 2696SOL    HW310783   1.495   3.193   4.527  2.1022 -1.3831 -0.1692
 2696SOL    MW410784   1.461   3.121   4.491  0.3139 -0.7009  0.1123
 2697SOL     OW10785   4.066   0.317   4.171  0.3787  0.5108 -0.0392
 2697SOL    HW210786   4.078   0.229   4.209 -0.5228 -0.2990 -1.6012
 2697SOL    HW310787   3.998   0.357   4.226  0.6024  0.1386  0.5180
 2697SOL    MW410788   4.058   0.311   4.183  0.2893  0.3549 -0.1718
 2698SOL     OW10789   0.647   2.251   4.116 -0.0070 -0.0808  0.3268
 2698SOL    HW210790   0.658   2.254   4.021 -2.2522  0.4182  0.0362
 2698SOL    HW310791   0.672   2.162   4.141 -0.0569 -0.4225 -0.8288
 2698SOL    MW410792   0.651   2.240   4.107 -0.3098 -0.0600  0.1360
 2699SOL     OW10793   3.618   0.884   4.315  0.3132  0.0682 -0.0502
 2699SOL    HW210794   3.684   0.833   4.267  0.3131  0.7062 -0.7283
 2699SOL    HW310795   3.616   0.969   4.272 -0.5147  0.2653  0.3563
 2699SOL    MW410796   3.626   0.888   4.303  0.2039  0.1784 -0.0860
 2700SOL     OW10797   0.442   1.437   4.621 -0.2008 -0.0761  0.2324
 2700SOL    HW210798   0.513   1.383   4.588 -0.3719 -0.3573  0.3222
 2700SOL    HW310799   0.475   1.527   4.616 -0.4078 -0.0607 -1.2025
 2700SOL    MW410800   0.455   1.442   4.616 -0.2507 -0.1112  0.0549
 2701SOL     OW10801   0.689   1.316   4.532 -0.0194  0.0655 -0.3211
 2701SOL    HW210802   0.731   1.402   4.521  1.0237 -0.5634 -1.2849
 2701SOL    HW310803   0.727   1.281   4.613  1.6165 -0.6540 -1.3718
 2701SOL    MW410804   0.700   1.323   4.542  0.3341 -0.1124 -0.5869
 2702SOL     OW10805   3.358   3.074   4.157  0.1486  0.1809 -0.1020
 2702SOL    HW210806   3.358   3.062   4.062 -0.2590  0.2824 -0.1180
 2702SOL    HW310807   3.346   2.986   4.192 -2.1773  0.4047 -0.2041
 2702SOL    MW410808   3.356   3.061   4.150 -0.2120  0.2238 -0.1176
 2703SOL     OW10809   4.125   3.720   4.466  0.2685  0.4249  0.1538
 2703SOL    HW210810   4.155   3.770   4.390  0.3095 -0.9764 -0.7806
 2703SOL    HW310811   4.200   3.668   4.492  0.4913  1.4612  1.6621
 2703SOL    MW410812   4.139   3.720   4.459  0.3033  0.3768  0.2295
 2704SOL     OW10813   2.034   3.571   4.536  0.1676  0.5184 -0.0299
 2704SOL    HW210814   2.037   3.615   4.451  0.8434  0.8881  0.1839
 2704SOL    HW310815   2.053   3.479   4.516  0.8210  0.6930 -0.2159
 2704SOL    MW410816   2.037   3.564   4.522  0.3429  0.5902 -0.0262
 2705SOL     OW10817   4.178   0.514   4.495 -0.1443  0.5807 -0.3727
 2705SOL    HW210818   4.120   0.588   4.512  0.6407  1.7124 -2.4527
 2705SOL    HW310819   4.265   0.546   4.518  0.0152 -0.2356  0.2048
 2705SOL    MW410820   4.182   0.528   4.500 -0.0196  0.6224 -0.5709
 2706SOL     OW10821   3.451   3.542   4.557  0.2373 -0.7995 -0.2609
 2706SOL    HW210822   3.541   3.530   4.527  0.7740  2.0940  0.0407
 2706SOL    HW310823   3.452   3.626   4.603 -2.3111 -1.3967  1.0011
 2706SOL    MW410824   3.463   3.552   4.559 -0.0281 -0.4965 -0.0546
 2707SOL     OW10825   2.886   3.030   4.140 -0.5555  0.0932 -0.2980
 2707SOL    HW210826   2.889   3.047   4.046  0.3211 -1.1940 -0.5173
 2707SOL    HW310827   2.972   3.057   4.173 -1.1874  1.4175  0.3028
 2707SOL    MW410828   2.898   3.036   4.132 -0.5232  0.0981 -0.2477
 2708SOL     OW10829   0.156   3.578   4.259 -0.1894  0.0987  0.2329
 2708SOL    HW210830   0.166   3.661   4.212 -0.3354 -0.2733 -0.4583
 2708SOL    HW310831   0.144   3.604   4.350 -3.6391  1.0488 -0.3859
 2708SOL    MW410832   0.156   3.592   4.265 -0.6638  0.1749  0.0601
 2709SOL     OW10833   1.762   1.641   4.534 -0.1790  0.4326  0.2637
 2709SOL    HW210834   1.768   1.554   4.574  1.3640  0.2992 -0.2247
 2709SOL    HW310835   1.759   1.624   4.440 -0.6152  0.8879  0.1897
 2709SOL    MW410836   1.762   1.627   4.527 -0.0330  0.4750  0.1895
 2710SOL     OW10837   2.713   0.811   4.505  0.1805  0.2778 -0.0797
 2710SOL    HW210838   2.655   0.735   4.515  0.2734 -0.2350 -2.9782
 2710SOL    HW310839   2.800   0.776   4.521  0.2024 -0.2032 -1.2042
 2710SOL    MW410840   2.717   0.796   4.508  0.1956  0.1467 -0.6104
 2711SOL     OW10841   1.155   2.045   4.138  0.2768  0.5189  0.2741
 2711SOL    HW210842   1.087   1.980   4.122 -0.1593  0.8048  0.9085
 2711SOL    HW310843   1.237   1.998   4.125 -0.0256  0.6204 -2.2486
 2711SOL    MW410844   1.157   2.030   4.135  0.1794  0.5700  0.0249
 2712SOL     OW10845   3.695   2.492   4.339  0.2463 -0.1965 -0.5290
 2712SOL    HW210846   3.707   2.575   4.385  1.3330 -1.1543  0.9792
 2712SOL    HW310847   3.615   2.455   4.377  0.1529 -0.1613 -0.6922
 2712SOL    MW410848   3.686   2.498   4.350  0.3774 -0.3182 -0.3515
 2713SOL     OW10849   2.507   0.485   4.280 -0.1892 -0.1176 -0.3083
 2713SOL    HW210850   2.426   0.440   4.258 -0.9087  2.2440 -2.6565
 2713SOL    HW310851   2.495   0.513   4.371 -1.3495 -1.1496 -0.1310
 2713SOL    MW410852   2.495   0.483   4.289 -0.4372  0.0578 -0.5947
 2714SOL     OW10853   2.463   2.091   4.204 -0.3317 -0.3893  0.5688
 2714SOL    HW210854   2.550   2.065   4.174 -0.4815  0.6133 -0.7779
 2714SOL    HW310855   2.464   2.073   4.298  1.2213 -0.6922  0.5098
 2714SOL    MW410856   2.475   2.085   4.213 -0.1466 -0.2970  0.3834
 2715SOL     OW10857   2.765   3.755   4.736 -0.1563 -0.1630 -0.4093
 2715SOL    HW210858   2.801   3.783   4.820  0.1464 -1.4055 -0.1044
 2715SOL    HW310859   2.758   3.835   4.684  1.8994  0.2755 -0.0399
 2715SOL    MW410860   2.768   3.769   4.740  0.1548 -0.2690 -0.3203
 2716SOL     OW10861   2.716   2.482   4.529 -0.2840  0.2400  0.2576
 2716SOL    HW210862   2.714   2.573   4.559  2.5048  0.5296 -0.3312
 2716SOL    HW310863   2.783   2.441   4.582  0.2796 -0.8279 -1.2638
 2716SOL    MW410864   2.724   2.489   4.540  0.1583  0.1373 -0.0208
 2717SOL     OW10865   0.697   3.619   4.240 -0.2876 -0.2861 -0.3550
 2717SOL    HW210866   0.612   3.576   4.238  0.2226 -1.2911 -1.2377
 2717SOL    HW310867   0.747   3.576   4.170  0.9301  0.3074  0.1340
 2717SOL    MW410868   0.693   3.608   4.230 -0.0596 -0.3404 -0.4069
 2718SOL     OW10869   1.177   1.400   4.268  0.2596 -0.5755  0.0847
 2718SOL    HW210870   1.233   1.325   4.248  2.4469  1.1736 -0.6545
 2718SOL    HW310871   1.169   1.399   4.364  2.2289 -0.4168  0.2661
 2718SOL    MW410872   1.183   1.390   4.278  0.8080 -0.3237  0.0111
 2719SOL     OW10873   4.047   3.453   4.197  0.3016  0.2298  0.0451
 2719SOL    HW210874   4.127   3.491   4.235  0.2945  0.6573 -0.3744
 2719SOL    HW310875   4.063   3.453   4.103 -0.0805  0.0474 -0.0199
 2719SOL    MW410876   4.060   3.458   4.190  0.2503  0.2622 -0.0188
 2720SOL     OW10877   0.476   1.899   4.172 -0.2925  0.1207 -0.2389
 2720SOL    HW210878   0.556   1.945   4.198  0.3516 -1.6635  1.0588
 2720SOL    HW310879   0.462   1.924   4.081  1.9949  0.0865 -0.6122
 2720SOL    MW410880   0.484   1.909   4.164  0.0943 -0.1192 -0.1169
 2721SOL     OW10881   3.204   0.341   4.612 -0.0142 -0.0528  0.3004
 2721SOL    HW210882   3.284   0.379   4.576 -0.8920  0.0416 -1.6094
 2721SOL    HW310883   3.161   0.413   4.659 -0.3180  0.6053 -0.9764
 2721SOL    MW410884   3.209   0.355   4.613 -0.1701  0.0465 -0.1200
 2722SOL     OW10885   2.447   2.854   4.281 -0.0786 -0.3511 -0.3233
 2722SOL    HW210886   2.460   2.940   4.241  1.8242  0.2456  1.5066
 2722SOL    HW310887   2.517   2.799   4.246  0.2764 -0.4333  0.5082
 2722SOL    MW410888   2.458   2.858   4.271  0.2193 -0.2832  0.0278
 2723SOL     OW10889   0.945   0.906   4.264  0.3226  0.1344 -0.0308
 2723SOL    HW210890   1.012   0.858   4.217 -1.5196 -1.4277 -1.0938
 2723SOL    HW310891   0.953   0.996   4.232  1.0352 -0.3119 -1.1188
 2723SOL    MW410892   0.955   0.912   4.254  0.1735 -0.1306 -0.3146
 2724SOL     OW10893   0.497   4.555   4.644 -0.4986 -0.4478 -0.4850
 2724SOL    HW210894   0.542   4.590   4.721 -1.0749 -2.1304  0.6406
 2724SOL    HW310895   0.562   4.501   4.600 -0.5362 -0.4681 -0.5168
 2724SOL    MW410896   0.512   4.553   4.649 -0.5796 -0.6725 -0.3407
 2725SOL     OW10897   0.838   3.326   4.459 -0.0061 -0.1911  0.6645
 2725SOL    HW210898   0.817   3.418   4.475  0.3522  0.0710 -0.3049
 2725SOL    HW310899   0.754   3.281   4.463 -0.7731  0.7681 -2.6611
 2725SOL    MW410900   0.825   3.332   4.461 -0.0600 -0.0299  0.0978
 2726SOL     OW10901   2.724   1.103   4.627 -0.7649  0.3739 -0.2901
 2726SOL    HW210902   2.732   1.012   4.597 -2.1204 -0.2682  1.2131
 2726SOL    HW310903   2.815   1.133   4.634 -0.3518 -0.3529 -2.2632
 2726SOL    MW410904   2.737   1.095   4.624 -0.8892  0.1933 -0.3521
 2727SOL     OW10905   3.862   4.337   4.243 -0.5095  0.1908  0.0498
 2727SOL    HW210906   3.940   4.302   4.199 -0.4555  0.6982 -0.2698
 2727SOL    HW310907   3.875   4.316   4.335  0.1407  0.5167  0.0324
 2727SOL    MW410908   3.874   4.330   4.249 -0.4166  0.3007  0.0054
 2728SOL     OW10909   3.397   1.778   4.585  0.3348  0.2327  0.5552
 2728SOL    HW210910   3.413   1.829   4.664 -0.0990 -0.5860  1.1701
 2728SOL    HW310911   3.481   1.736   4.565  1.0645  2.1774 -0.6866
 2728SOL    MW410912   3.410   1.779   4.593  0.3739  0.3813  0.4725
 2729SOL     OW10913   1.317   2.441   4.199  0.8984 -0.3665 -0.4847
 2729SOL    HW210914   1.384   2.380   4.168  0.4119 -0.9746 -0.3520
 2729SOL    HW310915   1.301   2.414   4.290 -1.4083 -1.9175 -1.3052
 2729SOL    MW410916   1.324   2.429   4.207  0.5299 -0.6514 -0.5754
 2730SOL     OW10917   0.478   2.706   4.195  0.0472  0.2284 -0.3743
 2730SOL    HW210918   0.526   2.785   4.220 -0.8537  1.1760 -1.5802
 2730SOL    HW310919   0.484   2.704   4.100 -1.3531 -0.2445 -0.4632
 2730SOL    MW410920   0.485   2.716   4.186 -0.2564  0.2910 -0.5451
 2731SOL     OW10921   2.681   1.763   4.684 -0.1482  0.2405  0.1726
 2731SOL    HW210922   2.707   1.677   4.652 -0.8225 -0.5296  1.6388
 2731SOL    HW310923   2.587   1.768   4.668  0.0172  1.0393 -0.6243
 2731SOL    MW410924   2.672   1.753   4.678 -0.2154  0.2443  0.2609
 2732SOL     OW10925   0.016   3.037   4.817 -0.2558  0.5278  0.3239
 2732SOL    HW210926   0.027   3.049   4.911  1.0424  2.6252 -0.0574
 2732SOL    HW310927   0.051   2.950   4.800  1.5640  0.9923  1.4928
 2732SOL    MW410928   0.022   3.027   4.827  0.1556  0.8658  0.4279
 2733SOL     OW10929   3.338   1.298   4.511  0.5902 -0.0583  0.5045
 2733SOL    HW210930   3.290   1.375   4.542 -1.7867 -0.6728 -1.3973
 2733SOL    HW310931   3.316   1.293   4.418  2.2981 -1.9086  0.1745
 2733SOL    MW410932   3.328   1.308   4.503  0.5019 -0.3835  0.2100
 2734SOL     OW10933   3.050   2.272   4.624 -0.0983 -0.5406 -0.0111
 2734SOL    HW210934   3.124   2.225   4.663  0.5267  1.0879  0.8022
 2734SOL    HW310935   3.090   2.331   4.560 -0.8193 -0.6048 -0.5261
 2734SOL    MW410936   3.065   2.273   4.621 -0.1110 -0.3342  0.0283
 2735SOL     OW10937   0.155   1.436   4.523 -0.2064  0.0927 -0.1128
 2735SOL    HW210938   0.237   1.441   4.572 -0.5520 -1.5498  0.6864
 2735SOL    HW310939   0.182   1.423   4.432  0.4306 -0.9944  0.2251
 2735SOL    MW410940   0.169   1.435   4.517 -0.1679 -0.2674  0.0373
 2736SOL     OW10941   1.372   0.124   4.254  0.1326 -0.3697  0.1204
 2736SOL    HW210942   1.455   0.082   4.232  0.4658  1.3322 -2.0880
 2736SOL    HW310943   1.366   0.117   4.349  2.9936 -0.1903  0.3713
 2736SOL    MW410944   1.382   0.117   4.263  0.5540 -0.1215 -0.1379
 2737SOL     OW10945   4.489   0.899   4.257 -0.8474  0.0072 -0.0641
 2737SOL    HW210946   4.420   0.834   4.245  0.4511 -1.2837 -0.6773
 2737SOL    HW310947   4.486   0.920   4.351 -0.5074 -1.8451  0.3922
 2737SOL    MW410948   4.479   0.893   4.268 -0.6312 -0.4075 -0.0848
 2738SOL     OW10949   1.086   1.049   4.600 -0.0340  0.7900  0.1973
 2738SOL    HW210950   1.067   1.130   4.552  0.3821  0.7995  0.0489
 2738SOL    HW310951   1.022   0.986   4.567 -0.0229  0.9127 -0.0611
 2738SOL    MW410952   1.075   1.051   4.590  0.0224  0.8075  0.1436
 2739SOL     OW10953   2.878   2.774   4.243 -0.2240  0.0273  0.5285
 2739SOL    HW210954   2.892   2.867   4.224 -1.5464 -0.0453 -0.8471
 2739SOL    HW310955   2.789   2.756   4.214  0.0763 -1.7290  0.6191
 2739SOL    MW410956   2.868   2.784   4.237 -0.3589 -0.2140  0.3589
 2740SOL     OW10957   4.360   3.576   4.535  0.5192  0.3687  0.3100
 2740SOL    HW210958   4.385   3.489   4.568  0.4444  0.1622 -0.1774
 2740SOL    HW310959   4.442   3.626   4.538  0.5992  0.2337  0.4378
 2740SOL    MW410960   4.374   3.571   4.540  0.5199  0.3237  0.2625
 2741SOL     OW10961   0.695   4.350   4.226 -0.2596  0.1066  0.3230
 2741SOL    HW210962   0.683   4.441   4.201  1.0682  0.3030  0.3863
 2741SOL    HW310963   0.706   4.352   4.321  0.8366 -0.0070  0.2011
 2741SOL    MW410964   0.695   4.362   4.235  0.0603  0.1175  0.3153
 2742SOL     OW10965   1.550   0.490   4.511  0.4274  0.4781  0.2872
 2742SOL    HW210966   1.576   0.477   4.420  1.1115 -1.1206  0.7042
 2742SOL    HW310967   1.630   0.517   4.555  0.5556 -0.7128  0.8047
 2742SOL    MW410968   1.564   0.492   4.504  0.5346  0.1101  0.4105
 2743SOL     OW10969   0.766   1.525   4.179 -0.0582  0.2347 -0.1181
 2743SOL    HW210970   0.726   1.529   4.092 -0.9242  1.8813  0.3458
 2743SOL    HW310971   0.750   1.435   4.208 -0.6505 -0.0383 -1.2549
 2743SOL    MW410972   0.758   1.514   4.172 -0.2506  0.4159 -0.2069
 2744SOL     OW10973   2.227   1.660   4.266 -0.0304 -0.4186 -0.0035
 2744SOL    HW210974   2.227   1.746   4.224  0.7263 -0.4252 -0.0244
 2744SOL    HW310975   2.295   1.611   4.220  0.1162 -0.7549  0.5598
 2744SOL    MW410976   2.236   1.665   4.254  0.0888 -0.4638  0.0681
 2745SOL     OW10977   3.212   1.070   4.612  0.0394 -0.4721  0.1224
 2745SOL    HW210978   3.260   1.145   4.578 -0.3036  0.3591  1.4693
 2745SOL    HW310979   3.128   1.106   4.640 -0.4396 -1.5006  0.0388
 2745SOL    MW410980   3.207   1.085   4.611 -0.0690 -0.4981  0.2891
 2746SOL     OW10981   1.098   1.378   4.526  0.4194  0.1316 -0.4153
 2746SOL    HW210982   1.038   1.447   4.555  0.8977  0.7864 -0.9646
 2746SOL    HW310983   1.168   1.378   4.592  0.0161 -0.3824  0.0233
 2746SOL    MW410984   1.099   1.387   4.539  0.4293  0.1501 -0.4299
 2747SOL     OW10985   0.755   2.369   4.506 -0.2995 -0.1735  0.2166
 2747SOL    HW210986   0.843   2.394   4.535 -1.0506  1.1931  1.3739
 2747SOL    HW310987   0.753   2.395   4.414  0.0222  1.1449  0.5663
 2747SOL    MW410988   0.767   2.376   4.498 -0.3562  0.1807  0.4154
 2748SOL     OW10989   3.773   2.459   4.686 -0.0081  0.4561 -0.2501
 2748SOL    HW210990   3.856   2.440   4.642 -0.7701 -0.7822 -1.1883
 2748SOL    HW310991   3.742   2.540   4.645  1.3100  1.6002  0.9592
 2748SOL    MW410992   3.780   2.468   4.675  0.0652  0.4437 -0.2143
 2749SOL     OW10993   2.291   4.214   4.210 -0.5111 -0.0070  0.0600
 2749SOL    HW210994   2.276   4.141   4.270  0.7686 -1.7823 -1.7148
 2749SOL    HW310995   2.369   4.258   4.244 -0.1401 -0.6473  0.0375
 2749SOL    MW410996   2.300   4.210   4.222 -0.2933 -0.3257 -0.1771
 2750SOL     OW10997   4.085   0.781   4.517  0.0664  0.3809  0.0722
 2750SOL    HW210998   4.032   0.839   4.572 -0.9749 -0.7106  0.2217
 2750SOL    HW310999   4.070   0.812   4.427 -3.2643 -1.8026 -0.2049
 2750SOL    MW411000   4.076   0.793   4.512 -0.5104 -0.0512  0.0554
 2751SOL     OW11001   2.150   1.715   4.541  0.1562  0.1146 -0.0143
 2751SOL    HW211002   2.093   1.639   4.553 -1.1272  0.7561 -1.8000
 2751SOL    HW311003   2.178   1.710   4.450  0.7974  1.3013  0.1065
 2751SOL    MW411004   2.146   1.704   4.531  0.0715  0.3558 -0.2339
 2752SOL     OW11005   1.599   2.818   4.173  0.3859  0.1253 -0.2017
 2752SOL    HW211006   1.625   2.910   4.182 -0.1215  0.2181  0.3332
 2752SOL    HW311007   1.681   2.770   4.175  0.5240  0.4052  1.6763
 2752SOL    MW411008   1.613   2.824   4.175  0.3372  0.1745  0.1166
 2753SOL     OW11009   2.022   0.499   4.599  0.0938  0.0567 -0.4968
 2753SOL    HW211010   2.009   0.405   4.609 -0.4452  0.1515 -0.3382
 2753SOL    HW311011   2.034   0.511   4.505  0.4298 -0.2031 -0.4906
 2753SOL    MW411012   2.022   0.488   4.588  0.0670  0.0349 -0.4750
 2754SOL     OW11013   2.363   3.123   4.766  0.1448  0.2357  0.0490
 2754SOL    HW211014   2.411   3.185   4.821 -0.1980 -0.0342  0.6703
 2754SOL    HW311015   2.427   3.056   4.744  0.1108 -0.0073  0.6875
 2754SOL    MW411016   2.378   3.122   4.771  0.0951  0.1680  0.2152
 2755SOL     OW11017   4.102   1.743   4.570  0.3582  0.1102  0.4651
 2755SOL    HW211018   4.147   1.824   4.546 -1.3035  1.3091  1.2563
 2755SOL    HW311019   4.162   1.698   4.628  0.8126  1.3540  0.9769
 2755SOL    MW411020   4.115   1.748   4.574  0.1989  0.4325  0.6370
 2756SOL     OW11021   2.177   2.441   4.253 -0.0945 -0.3161 -0.2137
 2756SOL    HW211022   2.193   2.525   4.210  0.8386 -0.8823 -0.9906
 2756SOL    HW311023   2.200   2.457   4.345 -1.9101  0.8447  0.0649
 2756SOL    MW411024   2.182   2.454   4.259 -0.2110 -0.2376 -0.2794
 2757SOL     OW11025   3.499   0.460   4.549 -0.3049 -0.1932  0.1065
 2757SOL    HW211026   3.593   0.447   4.567 -0.3810 -0.3722  0.3793
 2757SOL    HW311027   3.490   0.554   4.538 -0.0086 -0.2202 -0.3948
 2757SOL    MW411028   3.510   0.470   4.550 -0.2758 -0.2204  0.0764
 2758SOL     OW11029   0.677   3.140   4.131  0.2028  0.2138  0.2867
 2758SOL    HW211030   0.673   3.051   4.167  1.1723 -0.5796 -1.5266
 2758SOL    HW311031   0.760   3.175   4.162 -0.0708  0.4094  0.8056
 2758SOL    MW411032   0.687   3.133   4.140  0.2946  0.1350  0.1159
 2759SOL     OW11033   2.636   2.700   4.142  0.2028 -0.0031  0.0631
 2759SOL    HW211034   2.652   2.713   4.048 -0.2756  0.3991  0.0409
 2759SOL    HW311035   2.648   2.606   4.155  0.3163 -0.0535 -0.3924
 2759SOL    MW411036   2.640   2.689   4.131  0.1546  0.0433  0.0001
 2760SOL     OW11037   0.976   4.406   4.550 -0.1310 -0.5010 -0.0064
 2760SOL    HW211038   1.035   4.335   4.573 -0.4688 -0.4690  0.9761
 2760SOL    HW311039   1.021   4.453   4.479  0.4686 -1.1811 -0.0789
 2760SOL    MW411040   0.990   4.403   4.543 -0.0965 -0.5865  0.1136
 2761SOL     OW11041   0.696   4.638   4.163  0.7214  0.1563 -0.6360
 2761SOL    HW211042   0.686   4.646   4.068 -0.5904 -0.3471 -0.5494
 2761SOL    HW311043   0.778   4.683   4.182  0.6705  0.8247 -1.9282
 2761SOL    MW411044   0.706   4.645   4.153  0.5416  0.1781 -0.7950
 2762SOL     OW11045   3.602   3.138   4.547  0.4093 -0.4975  0.0145
 2762SOL    HW211046   3.688   3.179   4.553  0.2979 -0.3035  0.2863
 2762SOL    HW311047   3.570   3.163   4.461  0.5877 -0.4963 -0.0532
 2762SOL    MW411048   3.609   3.147   4.536  0.4182 -0.4717  0.0415
 2763SOL     OW11049   0.584   1.966   4.486  0.5373  0.2108  0.3395
 2763SOL    HW211050   0.536   2.016   4.552  0.6274  0.5126  0.1792
 2763SOL    HW311051   0.667   2.012   4.478  0.6798 -0.0575  0.3012
 2763SOL    MW411052   0.588   1.979   4.493  0.5680  0.2152  0.3133
 2764SOL     OW11053   0.940   1.151   4.131  0.3581 -0.1360  0.3916
 2764SOL    HW211054   0.879   1.199   4.186  0.4486  0.0848  0.2979
 2764SOL    HW311055   1.018   1.207   4.126  0.4238 -0.2444  0.2001
 2764SOL    MW411056   0.943   1.165   4.137  0.3787 -0.1211  0.3539
 2765SOL     OW11057   3.623   1.629   4.513 -0.1162  0.2956  0.3136
 2765SOL    HW211058   3.696   1.670   4.560 -0.9480  0.7843  1.1883
 2765SOL    HW311059   3.619   1.540   4.548  2.1231 -0.7979 -2.0684
 2765SOL    MW411060   3.632   1.623   4.524  0.0695  0.2158  0.1147
 2766SOL     OW11061   1.559   4.434   4.514  0.0694 -0.7363 -0.1044
 2766SOL    HW211062   1.491   4.502   4.520  1.6224  0.8772 -0.4805
 2766SOL    HW311063   1.576   4.426   4.420  1.0934 -0.4329  0.0521
 2766SOL    MW411064   1.552   4.442   4.503  0.4094 -0.4834 -0.1334
 2767SOL     OW11065   4.054   0.868   4.248  0.7239 -0.2458  0.2633
 2767SOL    HW211066   4.133   0.820   4.220 -1.1728 -1.6661 -2.9747
 2767SOL    HW311067   4.069   0.958   4.221  0.8371 -0.7133 -1.2483
 2767SOL    MW411068   4.066   0.873   4.241  0.4886 -0.4949 -0.3633
 2768SOL     OW11069   2.713   0.896   4.228 -0.0088  0.3385 -0.0507
 2768SOL    HW211070   2.726   0.884   4.322  0.1555 -1.1965 -0.2598
 2768SOL    HW311071   2.639   0.839   4.207 -0.2281  0.8936 -0.8014
 2768SOL    MW411072   2.705   0.887   4.238 -0.0161  0.2092 -0.1773
 2769SOL     OW11073   1.777   3.660   4.644 -0.6268  0.5744  0.3135
 2769SOL    HW211074   1.863   3.630   4.613 -0.8338 -1.2014  1.3876
 2769SOL    HW311075   1.794   3.748   4.678  0.3640  1.0294 -1.2862
 2769SOL    MW411076   1.791   3.668   4.645 -0.5234  0.4002  0.2442
 2770SOL     OW11077   3.814   2.047   4.323 -0.1324 -0.3978  0.5174
 2770SOL    HW211078   3.817   2.130   4.275  0.1588 -0.1514  0.9654
 2770SOL    HW311079   3.738   2.002   4.286  0.4973 -0.5114 -0.6817
 2770SOL    MW411080   3.804   2.052   4.312 -0.0109 -0.3803  0.4183
 2771SOL     OW11081   1.529   3.647   4.521 -0.4224  0.3850 -0.2229
 2771SOL    HW211082   1.619   3.664   4.546 -0.7213 -1.0862  1.9821
 2771SOL    HW311083   1.517   3.553   4.535 -1.9565  0.3462 -1.6205
 2771SOL    MW411084   1.539   3.637   4.526 -0.6643  0.1858 -0.1164
 2772SOL     OW11085   4.404   3.301   4.567  0.0615  0.4502 -0.0298
 2772SOL    HW211086   4.484   3.293   4.619 -0.4261 -0.2583  0.6362
 2772SOL    HW311087   4.428   3.270   4.480  0.9582  1.9056 -0.3196
 2772SOL    MW411088   4.418   3.296   4.562  0.1155  0.5488  0.0198
 2773SOL     OW11089   0.260   1.102   4.531  0.1134 -0.1221  0.0569
 2773SOL    HW211090   0.262   1.163   4.457 -0.0441  0.8144  0.8309
 2773SOL    HW311091   0.171   1.066   4.530  0.2972 -0.5694 -0.5794
 2773SOL    MW411092   0.248   1.105   4.521  0.1169 -0.0576  0.0751
 2774SOL     OW11093   1.568   2.005   4.206 -0.4254 -0.1490 -0.1136
 2774SOL    HW211094   1.563   2.025   4.300 -0.9929 -0.9188  0.0252
 2774SOL    HW311095   1.542   2.087   4.163  0.2116  0.3236  0.3945
 2774SOL    MW411096   1.564   2.018   4.213 -0.4162 -0.1882 -0.0283
 2775SOL     OW11097   4.250   3.079   4.687  0.1294  0.3178  0.4296
 2775SOL    HW211098   4.275   3.154   4.633  0.4796 -0.4508 -0.4690
 2775SOL    HW311099   4.331   3.054   4.732  0.0305  0.4238  0.6661
 2775SOL    MW411100   4.264   3.086   4.686  0.1625  0.2304  0.3422
 2776SOL     OW11101   3.642   0.081   4.252 -0.2903 -0.3362  0.6263
 2776SOL    HW211102   3.635   0.085   4.348 -0.0786  0.2929  0.6146
 2776SOL    HW311103   3.723   0.032   4.236  0.3636  0.6869  0.7722
 2776SOL    MW411104   3.652   0.075   4.263 -0.1761 -0.1182  0.6440
 2777SOL     OW11105   0.472   1.160   4.209 -0.3563 -0.2295  0.0727
 2777SOL    HW211106   0.479   1.067   4.234 -0.2964 -0.6814 -1.6009
 2777SOL    HW311107   0.474   1.160   4.114 -3.6489  1.2158 -0.0757
 2777SOL    MW411108   0.473   1.148   4.200 -0.7828 -0.0984 -0.1677
 2778SOL     OW11109   2.245   1.910   4.156 -0.0082  0.0682 -0.4548
 2778SOL    HW211110   2.181   1.961   4.205 -0.1962 -0.0790 -0.5470
 2778SOL    HW311111   2.328   1.957   4.168 -0.2702  0.6577 -0.9258
 2778SOL    MW411112   2.248   1.923   4.164 -0.0676  0.1265 -0.5291
 2779SOL     OW11113   1.543   0.976   4.681  0.3043 -0.2197  0.0107
 2779SOL    HW211114   1.463   0.941   4.642  0.2957 -0.4278  0.2069
 2779SOL    HW311115   1.555   1.061   4.640  0.1556 -0.3239 -0.2529
 2779SOL    MW411116   1.534   0.982   4.671  0.2836 -0.2609  0.0018
 2780SOL     OW11117   1.071   0.452   4.554  0.2894 -0.1114  0.0465
 2780SOL    HW211118   1.150   0.488   4.593  0.5955 -0.4056 -0.2922
 2780SOL    HW311119   0.999   0.488   4.606  0.6200  0.5036  0.0803
 2780SOL    MW411120   1.072   0.461   4.566  0.3734 -0.0691  0.0063
 2781SOL     OW11121   1.367   1.424   4.643 -0.0195  0.6047  0.2903
 2781SOL    HW211122   1.414   1.412   4.726 -0.4205  1.1278  0.6028
 2781SOL    HW311123   1.382   1.516   4.621 -0.4270  0.6253  0.0995
 2781SOL    MW411124   1.375   1.435   4.651 -0.1262  0.6764  0.3064
 2782SOL     OW11125   1.735   0.258   4.702  0.0960 -0.1460 -0.5894
 2782SOL    HW211126   1.640   0.258   4.701  0.0620 -1.5960  1.2556
 2782SOL    HW311127   1.759   0.350   4.714 -1.1098 -0.0045  0.8370
 2782SOL    MW411128   1.726   0.270   4.703 -0.0676 -0.3186 -0.1578
 2783SOL     OW11129   1.982   2.270   4.165 -0.0399 -0.2127  0.0382
 2783SOL    HW211130   1.988   2.282   4.070 -1.0340  1.0209  0.1234
 2783SOL    HW311131   2.050   2.327   4.201 -0.9490  0.8070  0.1567
 2783SOL    MW411132   1.991   2.279   4.157 -0.2910  0.0846  0.0651
 2784SOL     OW11133   1.984   1.232   4.230  0.9337 -0.6089  0.1628
 2784SOL    HW211134   2.068   1.205   4.193  0.5142 -0.3266 -1.0229
 2784SOL    HW311135   1.988   1.327   4.231 -0.4421 -0.4656 -2.5488
 2784SOL    MW411136   1.996   1.241   4.225  0.6968 -0.5528 -0.3514
 2785SOL     OW11137   4.309   3.840   4.171 -0.2091  0.3941 -0.1483
 2785SOL    HW211138   4.293   3.747   4.184  0.6055  0.1728 -0.6917
 2785SOL    HW311139   4.282   3.856   4.080  1.2341  0.3183 -0.6075
 2785SOL    MW411140   4.303   3.830   4.160  0.0888  0.3549 -0.2806
 2786SOL     OW11141   0.423   3.952   4.223  0.0058 -0.0562 -0.0952
 2786SOL    HW211142   0.419   3.969   4.317 -0.7076 -0.3265 -0.0719
 2786SOL    HW311143   0.431   4.039   4.184  1.1108  0.0017  0.2520
 2786SOL    MW411144   0.423   3.966   4.230  0.0575 -0.0842 -0.0463
 2787SOL     OW11145   3.590   1.128   4.196 -0.3662  0.1032 -0.2778
 2787SOL    HW211146   3.610   1.138   4.103 -0.1762  1.3731 -0.1013
 2787SOL    HW311147   3.508   1.175   4.209  0.0204  0.6185  0.3528
 2787SOL    MW411148   3.582   1.135   4.186 -0.2902  0.3387 -0.1713
 2788SOL     OW11149   3.361   1.259   4.233  0.1024 -0.6566 -0.2107
 2788SOL    HW211150   3.279   1.241   4.187  0.5372 -1.1120 -0.8069
 2788SOL    HW311151   3.399   1.333   4.187  1.6205 -2.4888 -2.0042
 2788SOL    MW411152   3.355   1.266   4.221  0.3601 -0.9584 -0.5260
 2789SOL     OW11153   0.893   0.624   4.703 -0.2512  0.5089  0.1796
 2789SOL    HW211154   0.919   0.707   4.665  1.6024  0.3005  0.9581
 2789SOL    HW311155   0.850   0.647   4.785 -0.9899  0.7628 -0.2762
 2789SOL    MW411156   0.891   0.638   4.709 -0.1041  0.5149  0.2222
 2790SOL     OW11157   1.365   3.993   4.223  0.0837 -0.1981 -0.2207
 2790SOL    HW211158   1.441   3.939   4.200  0.3659  0.9996 -2.2455
 2790SOL    HW311159   1.383   4.077   4.182 -1.0608  0.9765  1.6382
 2790SOL    MW411160   1.378   3.997   4.214 -0.0301  0.1149 -0.2426
 2791SOL     OW11161   4.281   4.598   4.128  0.0212  0.4917  0.0085
 2791SOL    HW211162   4.370   4.631   4.141 -0.0803  1.2608 -1.1224
 2791SOL    HW311163   4.225   4.663   4.170  0.0235 -0.3407  1.3106
 2791SOL    MW411164   4.286   4.611   4.135  0.0081  0.4834  0.0311
 2792SOL     OW11165   4.259   4.480   4.707 -0.0333  0.5053  0.2920
 2792SOL    HW211166   4.296   4.568   4.702  0.2696  0.3719  0.2174
 2792SOL    HW311167   4.164   4.495   4.707  0.0179  0.8528  0.6836
 2792SOL    MW411168   4.251   4.494   4.706  0.0135  0.5336  0.3338
 2793SOL     OW11169   2.734   1.530   4.550  0.0206 -0.5506  0.0445
 2793SOL    HW211170   2.813   1.512   4.601 -0.3480 -0.3353  0.6959
 2793SOL    HW311171   2.680   1.451   4.560  0.7389 -1.2642 -1.5300
 2793SOL    MW411172   2.737   1.517   4.558  0.0667 -0.6164 -0.0773
 2794SOL     OW11173   1.990   1.215   4.500  0.0362  0.6818  0.2356
 2794SOL    HW211174   1.978   1.224   4.406  0.3378 -0.4659  0.0844
 2794SOL    HW311175   2.083   1.198   4.511  0.1746  1.7686  0.8194
 2794SOL    MW411176   2.001   1.214   4.489  0.0942  0.6738  0.2927
 2795SOL     OW11177   0.513   1.636   4.236  0.1133 -0.0733 -0.2365
 2795SOL    HW211178   0.520   1.726   4.204 -0.9959  0.1214  0.0394
 2795SOL    HW311179   0.602   1.601   4.231  0.2219  0.4235 -2.1342
 2795SOL    MW411180   0.525   1.643   4.231 -0.0187  0.0180 -0.4505
 2796SOL     OW11181   4.067   1.681   4.289 -0.1619 -0.4145 -0.4212
 2796SOL    HW211182   4.150   1.637   4.268  0.4201  0.4949 -0.0972
 2796SOL    HW311183   4.064   1.681   4.385  0.6876  1.7352 -0.3617
 2796SOL    MW411184   4.078   1.675   4.299  0.0270 -0.0109 -0.3706
 2797SOL     OW11185   3.153   3.245   4.515 -0.0659 -0.4195 -0.2247
 2797SOL    HW211186   3.227   3.230   4.573  0.2436 -1.8366 -0.9630
 2797SOL    HW311187   3.087   3.182   4.543 -0.3236 -0.3647 -0.6969
 2797SOL    MW411188   3.154   3.235   4.526 -0.0591 -0.5992 -0.3844
 2798SOL     OW11189   1.767   4.277   4.821  0.5027 -0.0642  0.1966
 2798SOL    HW211190   1.697   4.237   4.769  0.0932 -0.9035  1.3794
 2798SOL    HW311191   1.793   4.355   4.771 -1.3795  0.3398 -0.1741
 2798SOL    MW411192   1.762   4.282   4.807  0.2003 -0.1216  0.3038
 2799SOL     OW11193   1.305   3.771   4.583  0.1722 -0.0308 -0.5358
 2799SOL    HW211194   1.385   3.736   4.543  0.3249 -0.7914  0.4214
 2799SOL    HW311195   1.329   3.792   4.673  0.1566  2.8706 -1.1704
 2799SOL    MW411196   1.318   3.769   4.590  0.1903  0.2517 -0.4933
 2800SOL     OW11197   0.027   4.015   4.246  0.4237 -0.1903 -0.1424
 2800SOL    HW211198  -0.044   3.950   4.247  0.7837 -0.6189 -1.4290
 2800SOL    HW311199   0.021   4.058   4.331 -2.1526  0.5818 -0.6486
 2800SOL    MW411200   0.017   4.012   4.257  0.1313 -0.1450 -0.3790
 2801SOL     OW11201   1.821   2.656   4.142  0.0359  0.5402 -0.4767
 2801SOL    HW211202   1.886   2.696   4.199  0.6604  0.4099 -1.0860
 2801SOL    HW311203   1.800   2.572   4.183 -0.5414  1.0438  0.2808
 2801SOL    MW411204   1.826   2.650   4.155  0.0421  0.5894 -0.4571
 2802SOL     OW11205   1.814   4.014   4.261 -0.1253 -0.4910 -0.3517
 2802SOL    HW211206   1.800   4.099   4.219  0.3973 -0.1333  0.1959
 2802SOL    HW311207   1.804   4.031   4.355  1.2735 -0.7607 -0.1344
 2802SOL    MW411208   1.811   4.028   4.268  0.1282 -0.4794 -0.2508
 2803SOL     OW11209   3.568   2.721   4.217  0.2139 -0.6442  0.0314
 2803SOL    HW211210   3.605   2.637   4.245  0.7648 -0.3955  0.0453
 2803SOL    HW311211   3.567   2.716   4.122  0.1076 -0.7233  0.0362
 2803SOL    MW411212   3.573   2.709   4.208  0.2726 -0.6218  0.0339
 2804SOL     OW11213   0.742   2.006   4.222  0.1755  0.2473  0.1285
 2804SOL    HW211214   0.802   1.946   4.179 -0.5120 -0.0959 -0.3715
 2804SOL    HW311215   0.795   2.052   4.287  1.0942  0.3521 -0.6949
 2804SOL    MW411216   0.757   2.005   4.225  0.2060  0.2159 -0.0461
 2805SOL     OW11217   2.253   1.139   4.149  0.1817 -0.1953  0.0851
 2805SOL    HW211218   2.334   1.187   4.169  1.7239 -1.7266 -2.2061
 2805SOL    HW311219   2.268   1.052   4.188 -1.0889  0.0520  1.1323
 2805SOL    MW411220   2.266   1.134   4.157  0.2176 -0.3647 -0.0790
 2806SOL     OW11221   2.494   3.518   4.529  0.0964  0.4764  0.3715
 2806SOL    HW211222   2.469   3.598   4.575  1.4338  0.0955  1.7943
 2806SOL    HW311223   2.426   3.454   4.553 -1.0054  1.1735 -0.8176
 2806SOL    MW411224   2.481   3.520   4.538  0.1275  0.5181  0.4024
 2807SOL     OW11225   4.083   4.187   4.143 -0.4882 -0.2822 -0.1615
 2807SOL    HW211226   4.075   4.106   4.193  1.2300 -0.3605  0.0346
 2807SOL    HW311227   4.162   4.229   4.179 -1.5404  1.6297 -0.0276
 2807SOL    MW411228   4.093   4.182   4.154 -0.4003 -0.0403 -0.1180
 2808SOL     OW11229   2.778   2.727   4.712  0.1143  0.1481  0.3526
 2808SOL    HW211230   2.856   2.755   4.664 -0.0538 -0.1255 -0.0812
 2808SOL    HW311231   2.806   2.648   4.760  0.3574  0.5767  0.9256
 2808SOL    MW411232   2.792   2.720   4.712  0.1242  0.1686  0.3710
 2809SOL     OW11233   0.632   2.970   4.521 -0.0830 -0.0955 -0.3564
 2809SOL    HW211234   0.705   2.926   4.565 -0.1559  2.1519  2.1118
 2809SOL    HW311235   0.555   2.918   4.545  0.0770  0.2669  0.9967
 2809SOL    MW411236   0.632   2.957   4.530 -0.0715  0.2489  0.1478
 2810SOL     OW11237   2.038   2.842   4.561 -0.3965  0.0510 -0.1435
 2810SOL    HW211238   2.046   2.899   4.638  1.2621  0.6959 -0.7532
 2810SOL    HW311239   2.123   2.797   4.557 -1.1154 -1.2691 -0.5953
 2810SOL    MW411240   2.050   2.844   4.571 -0.2725 -0.0381 -0.2836
 2811SOL     OW11241   2.442   2.363   4.180 -0.1197 -0.0471 -0.2865
 2811SOL    HW211242   2.351   2.393   4.186  0.1713  0.8362 -0.2832
 2811SOL    HW311243   2.435   2.267   4.182 -0.9591  0.0205  0.9796
 2811SOL    MW411244   2.429   2.354   4.181 -0.1920  0.0783 -0.1190
 2812SOL     OW11245   1.833   0.139   4.249  0.0577  0.1999  0.1454
 2812SOL    HW211246   1.904   0.084   4.216 -0.9952 -0.9989 -0.1498
 2812SOL    HW311247   1.833   0.123   4.344  0.4701  0.5347  0.1999
 2812SOL    MW411248   1.842   0.130   4.257 -0.0268  0.0859  0.1136
 2813SOL     OW11249   2.082   0.215   4.638 -0.4553 -0.8246 -0.5019
 2813SOL    HW211250   2.114   0.243   4.724 -1.0496 -1.3358 -0.1117
 2813SOL    HW311251   2.143   0.147   4.611  0.0598 -0.2739 -0.7368
 2813SOL    MW411252   2.094   0.210   4.646 -0.4658 -0.8193 -0.4814
 2814SOL     OW11253   0.858   2.447   4.216 -0.7097  0.0309  0.0478
 2814SOL    HW211254   0.944   2.411   4.193  0.2743  2.3945 -0.0376
 2814SOL    HW311255   0.796   2.385   4.178  0.9425 -1.1746 -0.7660
 2814SOL    MW411256   0.862   2.434   4.208 -0.3619  0.1837 -0.0708
 2815SOL     OW11257   3.180   1.612   4.285 -0.0127 -0.5815  0.0398
 2815SOL    HW211258   3.103   1.567   4.251 -0.2753  0.6948 -1.0882
 2815SOL    HW311259   3.253   1.574   4.238 -0.0500 -1.0261  0.3316
 2815SOL    MW411260   3.179   1.601   4.275 -0.0523 -0.4718 -0.0705
 2816SOL     OW11261   3.663   0.349   4.172 -0.2114 -0.7434  0.4965
 2816SOL    HW211262   3.679   0.362   4.078 -2.5202  0.9292  0.2772
 2816SOL    HW311263   3.666   0.254   4.184 -2.4869 -1.1681 -1.8299
 2816SOL    MW411264   3.665   0.338   4.161 -0.8163 -0.5787  0.1606
 2817SOL     OW11265   3.391   1.524   4.125  0.2596 -0.4135 -0.2170
 2817SOL    HW211266   3.404   1.534   4.031 -0.1156  1.0516 -0.1303
 2817SOL    HW311267   3.468   1.564   4.165 -0.0928 -0.0550  0.1131
 2817SOL    MW411268   3.403   1.531   4.118  0.1636 -0.1729 -0.1620
 2818SOL     OW11269   3.614   1.640   4.227 -0.3484 -0.0396  0.3330
 2818SOL    HW211270   3.612   1.633   4.322 -1.3237 -0.3307  0.3060
 2818SOL    HW311271   3.698   1.602   4.201 -0.5408 -0.9508  1.0132
 2818SOL    MW411272   3.625   1.634   4.236 -0.5025 -0.1982  0.4192
 2819SOL     OW11273   2.513   2.044   4.508  0.7244  0.3910 -0.1149
 2819SOL    HW211274   2.476   1.958   4.529 -1.3054  1.7027  2.0172
 2819SOL    HW311275   2.605   2.037   4.530  0.6410 -1.3406 -0.2702
 2819SOL    MW411276   2.520   2.032   4.514  0.4456  0.3356  0.1459
 2820SOL     OW11277   3.830   3.849   4.182  0.0822  0.7726  0.0034
 2820SOL    HW211278   3.831   3.757   4.209  0.8211  0.4674 -1.0479
 2820SOL    HW311279   3.912   3.885   4.218  0.8784  0.4618 -1.4633
 2820SOL    MW411280   3.841   3.841   4.190  0.2847  0.6913 -0.3288
 2821SOL     OW11281   0.487   3.683   4.558  0.0337 -0.3594 -0.2378
 2821SOL    HW211282   0.447   3.605   4.595  0.9103 -0.7292 -0.0593
 2821SOL    HW311283   0.579   3.659   4.544  0.1718  0.4331 -0.7543
 2821SOL    MW411284   0.494   3.669   4.561  0.1676 -0.3037 -0.2824
 2822SOL     OW11285   3.980   4.563   4.676  0.1671  0.0011  0.0737
 2822SOL    HW211286   3.981   4.657   4.662  2.0310 -0.0371 -0.1245
 2822SOL    HW311287   3.888   4.538   4.663  0.1403  1.3524 -2.7116
 2822SOL    MW411288   3.968   4.572   4.672  0.4095  0.1744 -0.3199
 2823SOL     OW11289   3.049   4.041   4.495 -0.3335  0.0608  0.0580
 2823SOL    HW211290   3.086   4.023   4.409 -0.4413 -0.2204  0.0686
 2823SOL    HW311291   3.087   3.974   4.552 -0.1672  0.3216  0.2550
 2823SOL    MW411292   3.059   4.030   4.491 -0.3258  0.0581  0.0854
 2824SOL     OW11293   0.898   0.855   4.537  0.3219 -0.2016 -0.2218
 2824SOL    HW211294   0.814   0.896   4.558  0.8841  1.7193 -1.5561
 2824SOL    HW311295   0.897   0.847   4.441  1.3391 -0.8390 -0.1788
 2824SOL    MW411296   0.887   0.860   4.527  0.5303 -0.0322 -0.3922
 2825SOL     OW11297   3.651   1.335   4.538 -0.1961 -0.5759  0.2791
 2825SOL    HW211298   3.684   1.246   4.554  1.7513  0.1016  0.1541
 2825SOL    HW311299   3.556   1.324   4.533 -0.0180 -2.5990  0.6317
 2825SOL    MW411300   3.643   1.321   4.539  0.0843 -0.7534  0.3092
 2826SOL     OW11301   2.433   1.766   4.557  0.0302 -0.3217 -0.6436
 2826SOL    HW211302   2.455   1.700   4.492  0.4661  0.0836 -0.9121
 2826SOL    HW311303   2.338   1.760   4.567 -0.0311 -0.4176 -1.2826
 2826SOL    MW411304   2.423   1.757   4.550  0.0796 -0.2809 -0.7633
 2827SOL     OW11305   2.970   0.812   4.123  0.0384 -0.4555 -0.2951
 2827SOL    HW211306   2.947   0.797   4.031  1.0731 -0.5175 -0.5498
 2827SOL    HW311307   2.892   0.855   4.160 -0.2888 -0.1952 -1.2595
 2827SOL    MW411308   2.956   0.816   4.116  0.1317 -0.4293 -0.4560
 2828SOL     OW11309   1.019   2.450   4.578  0.4380 -0.3955 -0.1047
 2828SOL    HW211310   1.016   2.545   4.576 -1.4308 -0.4189  0.6751
 2828SOL    HW311311   1.106   2.428   4.545  1.0827  1.5873  0.2161
 2828SOL    MW411312   1.030   2.460   4.573  0.2765 -0.1369  0.0405
 2829SOL     OW11313   0.184   2.109   4.610  0.3402  0.3110 -0.1521
 2829SOL    HW211314   0.177   2.201   4.584  2.7144  0.0883 -1.7635
 2829SOL    HW311315   0.189   2.061   4.528 -0.3377 -1.2089  0.6817
 2829SOL    MW411316   0.184   2.115   4.596  0.5640  0.0811 -0.2547
 2830SOL     OW11317   1.566   2.840   4.492 -0.3057  0.1353 -0.4010
 2830SOL    HW211318   1.600   2.858   4.405 -1.3685 -0.7926 -1.0153
 2830SOL    HW311319   1.521   2.921   4.518 -0.1119  0.3580 -0.7644
 2830SOL    MW411320   1.564   2.853   4.484 -0.4203  0.0422 -0.5300
 2831SOL     OW11321   1.878   1.862   4.654 -0.0620 -0.5588  0.6498
 2831SOL    HW211322   1.818   1.798   4.617  0.6467  0.2692 -2.0845
 2831SOL    HW311323   1.964   1.822   4.646  0.3184  0.4788 -0.5017
 2831SOL    MW411324   1.881   1.849   4.648  0.0817 -0.3127  0.1371
 2832SOL     OW11325   0.849   1.170   4.702 -0.5183  0.1277  0.2411
 2832SOL    HW211326   0.939   1.141   4.691 -0.7484  0.6565 -3.9470
 2832SOL    HW311327   0.799   1.090   4.717  0.5083 -0.2301  1.8943
 2832SOL    MW411328   0.854   1.156   4.702 -0.4132  0.1502 -0.0934
 2833SOL     OW11329   3.393   3.830   4.207  0.1430 -0.0056 -0.4961
 2833SOL    HW211330   3.374   3.743   4.240  3.2088 -0.7400 -0.4836
 2833SOL    HW311331   3.400   3.819   4.112  0.2038  0.2800 -0.5260
 2833SOL    MW411332   3.391   3.817   4.199  0.5555 -0.0648 -0.4984
 2834SOL     OW11333   3.841   2.804   4.274 -0.2999 -0.4407 -0.1728
 2834SOL    HW211334   3.747   2.788   4.281 -0.3579 -0.0084  0.0553
 2834SOL    HW311335   3.868   2.829   4.362  0.1397 -1.1384 -0.1146
 2834SOL    MW411336   3.832   2.805   4.286 -0.2495 -0.4757 -0.1350
 2835SOL     OW11337   3.816   2.066   4.620 -0.1720  0.0877 -0.1548
 2835SOL    HW211338   3.905   2.088   4.648 -0.2583  1.1423 -0.6564
 2835SOL    HW311339   3.824   2.047   4.527 -0.3929 -0.2942 -0.0963
 2835SOL    MW411340   3.829   2.067   4.611 -0.2126  0.1765 -0.2132
 2836SOL     OW11341   3.381   0.075   4.649  0.1448 -0.1838  0.5993
 2836SOL    HW211342   3.337   0.159   4.665  0.3869  0.4406 -1.9017
 2836SOL    HW311343   3.316   0.009   4.673 -0.6837  0.7149  0.8542
 2836SOL    MW411344   3.367   0.078   4.654  0.0674  0.0172  0.3029
 2837SOL     OW11345   0.206   3.836   4.150 -0.0826  0.0202 -0.0649
 2837SOL    HW211346   0.133   3.888   4.185  0.0476 -1.1500  1.9825
 2837SOL    HW311347   0.285   3.881   4.180  0.0312 -0.6479  0.6484
 2837SOL    MW411348   0.207   3.849   4.158 -0.0504 -0.2224  0.2993
 2838SOL     OW11349   4.316   0.825   4.667  0.1013 -0.0117 -0.4636
 2838SOL    HW211350   4.233   0.813   4.621 -1.0163 -1.0241  1.7191
 2838SOL    HW311351   4.366   0.746   4.646 -0.1597 -0.1871 -0.4317
 2838SOL    MW411352   4.312   0.813   4.658 -0.0806 -0.1684 -0.1714
 2839SOL     OW11353   2.739   3.455   4.158  0.0249  0.5267  0.4804
 2839SOL    HW211354   2.794   3.516   4.208 -1.1972  1.4293  0.7600
 2839SOL    HW311355   2.650   3.480   4.181 -0.5123 -0.4233 -0.5487
 2839SOL    MW411356   2.735   3.467   4.167 -0.2072  0.5204  0.3815
 2840SOL     OW11357   2.956   4.324   4.534  0.1921 -0.2062  0.4218
 2840SOL    HW211358   2.973   4.230   4.524  1.3744 -0.2209  2.4605
 2840SOL    HW311359   2.975   4.360   4.447 -1.0935 -1.9438 -0.6263
 2840SOL    MW411360   2.961   4.316   4.521  0.1785 -0.4374  0.5525
 2841SOL     OW11361   2.914   3.598   4.319  0.0861 -0.0105  0.0942
 2841SOL    HW211362   2.924   3.580   4.412 -0.8039  0.5231  0.2926
 2841SOL    HW311363   2.992   3.559   4.279  0.5842 -0.0436  1.0806
 2841SOL    MW411364   2.926   3.591   4.326  0.0344  0.0555  0.2505
 2842SOL     OW11365   4.474   3.377   4.156  0.1505  0.0025 -0.4082
 2842SOL    HW211366   4.555   3.424   4.177 -1.3057  1.9677  0.9772
 2842SOL    HW311367   4.465   3.385   4.061  1.2966  0.2534 -0.5013
 2842SOL    MW411368   4.484   3.384   4.146  0.1096  0.2949 -0.2377
 2843SOL     OW11369   3.125   1.817   4.117 -0.1449 -0.0409 -0.0771
 2843SOL    HW211370   3.133   1.735   4.166 -0.5585  0.0173  0.0897
 2843SOL    HW311371   3.204   1.866   4.140 -0.6233  0.2413  1.0119
 2843SOL    MW411372   3.137   1.812   4.127 -0.2626  0.0040  0.0886
 2844SOL     OW11373   4.203   2.665   4.570 -0.5583 -0.3388 -0.1783
 2844SOL    HW211374   4.290   2.635   4.598 -0.0540  2.2095  1.1165
 2844SOL    HW311375   4.217   2.693   4.479  0.1399  0.5572  0.1874
 2844SOL    MW411376   4.217   2.665   4.561 -0.3997  0.1157  0.0408
 2845SOL     OW11377   0.476   3.259   4.259 -0.1755 -0.1393  0.0317
 2845SOL    HW211378   0.541   3.216   4.203 -0.0099  0.1016  0.0387
 2845SOL    HW311379   0.498   3.352   4.254 -1.2635  0.0752 -0.9138
 2845SOL    MW411380   0.487   3.265   4.251 -0.2972 -0.0792 -0.0921
 2846SOL     OW11381   3.254   2.730   4.494 -0.1956 -0.2056  0.1698
 2846SOL    HW211382   3.330   2.750   4.548  0.5437  1.1351 -1.2859
 2846SOL    HW311383   3.248   2.635   4.495  0.5388 -0.2549  1.5908
 2846SOL    MW411384   3.263   2.720   4.501 -0.0012 -0.0352  0.1652
 2847SOL     OW11385   2.216   3.223   4.287 -0.2740  0.1875  0.4356
 2847SOL    HW211386   2.210   3.312   4.250  0.1924  0.0646  0.0628
 2847SOL    HW311387   2.164   3.169   4.227  1.0744 -0.1404 -0.4556
 2847SOL    MW411388   2.208   3.228   4.274 -0.0346  0.1280  0.2688
 2848SOL     OW11389   2.525   0.586   4.531 -0.0994  0.0849  0.7768
 2848SOL    HW211390   2.454   0.600   4.593 -1.2330 -0.6148 -0.3348
 2848SOL    HW311391   2.580   0.519   4.572 -0.8038 -0.3314  1.0476
 2848SOL    MW411392   2.523   0.579   4.544 -0.3419 -0.0623  0.6659
 2849SOL     OW11393   3.459   0.963   4.676 -0.2556  0.1337  0.0306
 2849SOL    HW211394   3.453   0.872   4.646 -0.3103  0.3840 -0.7176
 2849SOL    HW311395   3.370   0.997   4.669  0.0650  0.7245 -1.2073
 2849SOL    MW411396   3.446   0.955   4.671 -0.2205  0.2446 -0.2314
 2850SOL     OW11397   1.366   4.015   4.483 -0.0924 -0.1062 -0.1996
 2850SOL    HW211398   1.363   4.026   4.388 -1.1415  1.7095  0.0018
 2850SOL    HW311399   1.340   3.924   4.498 -0.5352 -0.2315 -1.6218
 2850SOL    MW411400   1.362   4.005   4.472 -0.2892  0.1168 -0.3607
 2851SOL     OW11401   3.477   2.874   4.611  0.2178  0.1726 -0.4606
 2851SOL    HW211402   3.524   2.958   4.611  1.5352 -0.5345 -1.9046
 2851SOL    HW311403   3.393   2.894   4.651  1.3525  1.7131  1.2786
 2851SOL    MW411404   3.472   2.888   4.616  0.5413  0.2825 -0.4216
 2852SOL     OW11405   0.395   0.966   4.737  0.5231 -0.3844  0.5318
 2852SOL    HW211406   0.350   1.016   4.668  1.9961 -0.2726 -0.3734
 2852SOL    HW311407   0.332   0.963   4.809 -0.7683  0.1280 -0.5485
 2852SOL    MW411408   0.381   0.973   4.738  0.5471 -0.3020  0.2698
 2853SOL     OW11409   2.668   3.964   4.296 -0.0390 -0.0125 -0.8785
 2853SOL    HW211410   2.752   3.929   4.265  0.0801 -0.9331  0.4292
 2853SOL    HW311411   2.672   4.057   4.276  1.8513  0.1959  0.3040
 2853SOL    MW411412   2.680   3.972   4.290  0.2261 -0.1064 -0.5500
 2854SOL     OW11413   3.676   3.899   4.597 -0.4575 -0.5703  0.2618
 2854SOL    HW211414   3.751   3.841   4.609 -0.0091 -0.1223 -0.3171
 2854SOL    HW311415   3.672   3.912   4.502  0.1840  1.2932  0.4648
 2854SOL    MW411416   3.686   3.893   4.586 -0.3137 -0.2653  0.2122
 2855SOL     OW11417   3.208   0.828   4.480  0.1222 -0.0002 -0.0888
 2855SOL    HW211418   3.208   0.914   4.523 -1.2480 -0.1601  0.2286
 2855SOL    HW311419   3.201   0.848   4.387 -1.8533  0.1835  0.0908
 2855SOL    MW411420   3.207   0.842   4.474 -0.3192  0.0029 -0.0232
 2856SOL     OW11421   3.148   3.812   4.654  0.0723 -0.3588  0.1379
 2856SOL    HW211422   3.125   3.766   4.574  1.4669 -0.1806 -0.3782
 2856SOL    HW311423   3.244   3.819   4.652  0.0956  0.0362  1.5966
 2856SOL    MW411424   3.158   3.807   4.643  0.2594 -0.2832  0.2622
 2857SOL     OW11425   0.357   3.443   4.608  0.3202  0.2775  0.3896
 2857SOL    HW211426   0.299   3.391   4.664 -1.6070  1.1948 -0.6953
 2857SOL    HW311427   0.411   3.378   4.562 -0.8912 -0.6887  0.3013
 2857SOL    MW411428   0.356   3.428   4.609 -0.0939  0.2710  0.2348
 2858SOL     OW11429   0.672   0.951   4.696  0.0067 -0.1131  0.3987
 2858SOL    HW211430   0.588   0.996   4.684  0.4442  0.7827  0.6379
 2858SOL    HW311431   0.649   0.870   4.741 -0.6724  0.3926  0.9813
 2858SOL    MW411432   0.658   0.946   4.700 -0.0251  0.0718  0.5071
 2859SOL     OW11433   4.275   4.343   4.249  0.5609 -0.0914 -0.3266
 2859SOL    HW211434   4.274   4.438   4.241 -0.2254 -0.0690  0.0215
 2859SOL    HW311435   4.363   4.317   4.221  0.9164  0.7705 -0.0011
 2859SOL    MW411436   4.287   4.352   4.245  0.5041  0.0253 -0.2377
 2860SOL     OW11437   0.162   3.258   4.687 -0.1742 -0.1039  0.3318
 2860SOL    HW211438   0.208   3.200   4.627  0.0958 -0.2928  0.7158
 2860SOL    HW311439   0.117   3.198   4.747  0.5862  0.0849  1.0923
 2860SOL    MW411440   0.162   3.242   4.687 -0.0383 -0.1039  0.4828
 2861SOL     OW11441   3.299   2.805   4.231  0.0245  0.2209  0.0152
 2861SOL    HW211442   3.383   2.770   4.202  0.4343  0.9900  0.2647
 2861SOL    HW311443   3.289   2.770   4.320 -0.1854 -0.3352 -0.2302
 2861SOL    MW411444   3.309   2.796   4.239  0.0509  0.2490  0.0157
 2862SOL     OW11445   1.592   2.102   4.466 -0.2998  0.0406  0.0632
 2862SOL    HW211446   1.573   2.193   4.489  0.1615  0.1102  0.1743
 2862SOL    HW311447   1.684   2.089   4.491 -0.8490 -0.9731  1.6276
 2862SOL    MW411448   1.602   2.112   4.472 -0.3114 -0.0839  0.2843
 2863SOL     OW11449   0.924   4.245   4.103 -0.2703 -0.4041 -0.2260
 2863SOL    HW211450   0.847   4.291   4.138 -0.7798 -1.3520 -0.0904
 2863SOL    HW311451   0.916   4.156   4.136  1.1306 -0.4078  0.1669
 2863SOL    MW411452   0.913   4.239   4.112 -0.1526 -0.5297 -0.1563
 2864SOL     OW11453   4.159   4.324   4.506 -0.1277 -0.2166 -0.3555
 2864SOL    HW211454   4.217   4.332   4.430 -0.4629 -0.2763 -0.6163
 2864SOL    HW311455   4.208   4.366   4.578  0.3360 -0.4643 -0.5197
 2864SOL    MW411456   4.173   4.330   4.506 -0.1108 -0.2571 -0.4116
 2865SOL     OW11457   2.668   2.223   4.790 -0.1210  0.7101  0.3718
 2865SOL    HW211458   2.587   2.232   4.740 -1.1758 -0.7451  1.7730
 2865SOL    HW311459   2.713   2.149   4.750 -1.6840 -1.4452  2.4490
 2865SOL    MW411460   2.663   2.215   4.778 -0.4664  0.2338  0.8308
 2866SOL     OW11461   1.598   0.011   4.195  0.3359  0.5832 -0.6221
 2866SOL    HW211462   1.600  -0.081   4.222 -0.1424  0.6085 -0.4962
 2866SOL    HW311463   1.681   0.047   4.227  0.3907  0.2701 -0.4071
 2866SOL    MW411464   1.610   0.003   4.203  0.2800  0.5453 -0.5771
 2867SOL     OW11465   2.122   3.750   4.742 -0.1728 -0.4008  0.3439
 2867SOL    HW211466   2.093   3.687   4.676 -0.1633 -0.9004  0.8119
 2867SOL    HW311467   2.166   3.697   4.809  0.3763  0.1713  0.4433
 2867SOL    MW411468   2.124   3.735   4.742 -0.0991 -0.3912  0.4188
 2868SOL     OW11469   3.902   3.758   4.615  0.4695  0.4656  0.0938
 2868SOL    HW211470   3.993   3.745   4.590  0.0854  0.3957 -1.3274
 2868SOL    HW311471   3.859   3.674   4.597 -0.1676  0.9340 -0.6176
 2868SOL    MW411472   3.908   3.745   4.609  0.3347  0.5182 -0.1876
 2869SOL     OW11473   0.004   1.640   4.248  0.1791 -0.3719 -0.1832
 2869SOL    HW211474   0.087   1.603   4.218 -0.4609 -1.5955 -0.4469
 2869SOL    HW311475  -0.063   1.583   4.211 -0.8162  0.9121 -0.4059
 2869SOL    MW411476   0.006   1.628   4.239 -0.0367 -0.3640 -0.2473
 2870SOL     OW11477   3.400   4.376   4.235 -0.0996  0.0461  0.4764
 2870SOL    HW211478   3.417   4.403   4.326 -0.8003 -2.0188  1.2395
 2870SOL    HW311479   3.462   4.304   4.220 -0.6387 -0.2432 -0.3744
 2870SOL    MW411480   3.411   4.370   4.245 -0.2632 -0.2645  0.4648
 2871SOL     OW11481   1.829   3.271   4.269  0.0470  0.2405 -0.2705
 2871SOL    HW211482   1.883   3.276   4.348  0.1383 -0.0065 -0.3140
 2871SOL    HW311483   1.829   3.360   4.234 -0.9209  0.5884  0.6112
 2871SOL    MW411484   1.836   3.283   4.275 -0.0687  0.2538 -0.1599
 2872SOL     OW11485   1.814   4.069   4.531  0.5561 -0.0628  0.0163
 2872SOL    HW211486   1.729   4.106   4.555  0.9349  0.6805  0.2140
 2872SOL    HW311487   1.836   4.011   4.604  0.5371  0.2733  0.2907
 2872SOL    MW411488   1.805   4.066   4.544  0.6035  0.0796  0.0786
 2873SOL     OW11489   1.311   0.872   4.554 -0.4353 -0.0401 -0.5223
 2873SOL    HW211490   1.239   0.933   4.566  0.9251  1.7302 -1.1077
 2873SOL    HW311491   1.327   0.871   4.459  1.2536  0.7395 -0.2739
 2873SOL    MW411492   1.304   0.880   4.543 -0.0329  0.2963 -0.5668
 2874SOL     OW11493   2.878   0.271   4.811  0.5681  0.1473 -0.2284
 2874SOL    HW211494   2.940   0.344   4.805  1.0703 -0.3039 -0.4899
 2874SOL    HW311495   2.920   0.199   4.764  0.4075 -0.5455  0.6806
 2874SOL    MW411496   2.892   0.271   4.804  0.6132 -0.0037 -0.1430
 2875SOL     OW11497   3.395   4.653   4.131 -0.0773  0.1003 -0.0982
 2875SOL    HW211498   3.388   4.560   4.152  1.7270 -0.3312 -1.2328
 2875SOL    HW311499   3.480   4.680   4.165  1.1685  0.3297 -3.1691
 2875SOL    MW411500   3.406   4.644   4.138  0.3251  0.0736 -0.6531
 2876SOL     OW11501   3.774   0.488   4.562  0.1018 -0.4020 -0.5112
 2876SOL    HW211502   3.807   0.475   4.473  0.4317  0.5528 -0.5330
 2876SOL    HW311503   3.799   0.578   4.584 -2.8992  0.5291 -0.7126
 2876SOL    MW411504   3.782   0.498   4.553 -0.2506 -0.1532 -0.5407
 2877SOL     OW11505   2.475   1.286   4.261 -0.0044 -0.0335  0.0638
 2877SOL    HW211506   2.544   1.236   4.215  0.6706  0.6377  0.3381
 2877SOL    HW311507   2.488   1.376   4.232 -1.6007 -0.0977 -0.8880
 2877SOL    MW411508   2.486   1.291   4.251 -0.1260  0.0466 -0.0256
 2878SOL     OW11509   3.921   4.056   4.677 -0.2685  0.2828  0.1469
 2878SOL    HW211510   3.879   3.974   4.650 -0.4133  0.1782  0.6923
 2878SOL    HW311511   3.878   4.080   4.759  1.4083 -0.3621  1.2502
 2878SOL    MW411512   3.910   4.048   4.684 -0.0664  0.1839  0.3644
 2879SOL     OW11513   0.115   2.391   4.552  0.0272 -0.8589  0.4426
 2879SOL    HW211514   0.195   2.438   4.527 -1.5572  1.8111  0.2111
 2879SOL    HW311515   0.072   2.372   4.468 -0.8961  0.1427  0.6773
 2879SOL    MW411516   0.120   2.395   4.537 -0.3036 -0.3744  0.4430
 2880SOL     OW11517   2.955   1.497   4.182  0.4644 -0.0844 -0.4868
 2880SOL    HW211518   2.958   1.421   4.241  1.6669  0.9831  0.8679
 2880SOL    HW311519   2.873   1.541   4.202  0.3664 -0.3211 -0.3727
 2880SOL    MW411520   2.945   1.493   4.192  0.6101  0.0252 -0.2930
 2881SOL     OW11521   0.241   0.550   4.519  0.7820  0.4244 -0.6200
 2881SOL    HW211522   0.315   0.610   4.516  0.3156  0.9594 -1.9705
 2881SOL    HW311523   0.230   0.522   4.428  0.1233 -0.6386 -0.2261
 2881SOL    MW411524   0.249   0.554   4.506  0.6335  0.3547 -0.7462
   4.49070   4.66690  10.00000
